version 2
run Nsf-0-20141012-18:49:16-8229
attr configname Nsf
attr datetime 20141012-18:49:16
attr experiment Nsf
attr inifile omnetpp.ini
attr iterationvars ""
attr iterationvars2 $repetition=0
attr measurement ""
attr network org.car2x.veins.nodes.FranciscoScenario
attr processid 8229
attr repetition 0
attr replication #0
attr resultdir results
attr runnumber 0
attr seedset 0

vector 10  FranciscoScenario.node[0].veinsmobility  posx  ETV
vector 11  FranciscoScenario.node[0].veinsmobility  posy  ETV
vector 12  FranciscoScenario.node[0].veinsmobility  speed  ETV
vector 13  FranciscoScenario.node[0].veinsmobility  acceleration  ETV
vector 14  FranciscoScenario.node[0].veinsmobility  co2emission  ETV
vector 21  FranciscoScenario.node[1].veinsmobility  posx  ETV
vector 22  FranciscoScenario.node[1].veinsmobility  posy  ETV
vector 23  FranciscoScenario.node[1].veinsmobility  speed  ETV
vector 24  FranciscoScenario.node[1].veinsmobility  acceleration  ETV
vector 25  FranciscoScenario.node[1].veinsmobility  co2emission  ETV
vector 0  FranciscoScenario.stats  allBeaconsReceivedSignal:vector  ETV
attr description  "All Beacons Received"
vector 3  FranciscoScenario.stats  allMessagesReceivedSignal:vector  ETV
attr description  "All Messages Received"
vector 16  FranciscoScenario.node[1].appl  beaconReceivedSignal:vector  ETV
attr description  "Beacon Message Received"
vector 17  FranciscoScenario.node[1].appl  messageReceivedSignal:vector  ETV
attr description  "Message Received"
vector 5  FranciscoScenario.node[0].appl  beaconReceivedSignal:vector  ETV
attr description  "Beacon Message Received"
vector 6  FranciscoScenario.node[0].appl  messageReceivedSignal:vector  ETV
attr description  "Message Received"
vector 32  FranciscoScenario.node[2].veinsmobility  posx  ETV
vector 33  FranciscoScenario.node[2].veinsmobility  posy  ETV
vector 34  FranciscoScenario.node[2].veinsmobility  speed  ETV
vector 35  FranciscoScenario.node[2].veinsmobility  acceleration  ETV
vector 36  FranciscoScenario.node[2].veinsmobility  co2emission  ETV
vector 27  FranciscoScenario.node[2].appl  beaconReceivedSignal:vector  ETV
attr description  "Beacon Message Received"
vector 28  FranciscoScenario.node[2].appl  messageReceivedSignal:vector  ETV
attr description  "Message Received"
vector 43  FranciscoScenario.node[3].veinsmobility  posx  ETV
vector 44  FranciscoScenario.node[3].veinsmobility  posy  ETV
vector 45  FranciscoScenario.node[3].veinsmobility  speed  ETV
vector 46  FranciscoScenario.node[3].veinsmobility  acceleration  ETV
vector 47  FranciscoScenario.node[3].veinsmobility  co2emission  ETV
vector 38  FranciscoScenario.node[3].appl  beaconReceivedSignal:vector  ETV
attr description  "Beacon Message Received"
vector 39  FranciscoScenario.node[3].appl  messageReceivedSignal:vector  ETV
attr description  "Message Received"
vector 54  FranciscoScenario.node[4].veinsmobility  posx  ETV
vector 55  FranciscoScenario.node[4].veinsmobility  posy  ETV
vector 56  FranciscoScenario.node[4].veinsmobility  speed  ETV
vector 57  FranciscoScenario.node[4].veinsmobility  acceleration  ETV
vector 58  FranciscoScenario.node[4].veinsmobility  co2emission  ETV
vector 49  FranciscoScenario.node[4].appl  beaconReceivedSignal:vector  ETV
attr description  "Beacon Message Received"
vector 50  FranciscoScenario.node[4].appl  messageReceivedSignal:vector  ETV
attr description  "Message Received"
vector 65  FranciscoScenario.node[5].veinsmobility  posx  ETV
vector 66  FranciscoScenario.node[5].veinsmobility  posy  ETV
vector 67  FranciscoScenario.node[5].veinsmobility  speed  ETV
vector 68  FranciscoScenario.node[5].veinsmobility  acceleration  ETV
vector 69  FranciscoScenario.node[5].veinsmobility  co2emission  ETV
vector 60  FranciscoScenario.node[5].appl  beaconReceivedSignal:vector  ETV
attr description  "Beacon Message Received"
vector 61  FranciscoScenario.node[5].appl  messageReceivedSignal:vector  ETV
attr description  "Message Received"
6	95	3.724951084063	1
6	135	4.724952205182	1
6	175	5.724953364813	1
6	227	6.724954562002	1
6	251	7.032548660741	1
6	300	7.724943892473	1
6	324	8.032551029549	1
6	373	8.724946284361	1
6	397	9.032553460512	1
6	454	9.724948726225	1
6	488	10.032542938063	1
6	515	10.038316039658	1
6	572	10.724952298835	1
6	606	11.032546539832	1
6	633	11.038319683109	1
6	686	11.72494291337	1
6	724	12.032550171372	1
6	751	12.038323358131	1
6	812	12.724946545467	1
6	860	13.016122111373	1
6	893	13.032542111902	1
6	926	13.038315337619	1
6	987	13.724951480478	1
6	1035	14.016114096402	1
6	1064	14.032547097106	1
6	1101	14.038320354551	1
6	1162	14.724943471911	1
6	1210	15.016119116189	1
6	1239	15.032552117867	1
6	1276	15.038312392746	1
6	1345	15.724948506372	1
6	1400	15.750664229045	1
6	1442	16.016112224788	1
6	1469	16.03254523295	1
6	1520	16.038318495583	1
6	1593	16.724954632157	1
6	1644	16.750657341569	1
5	95	3.724951084063	1
5	135	4.724952205182	1
5	175	5.724953364813	1
5	227	6.724954562002	1
5	251	7.032548660741	1
5	300	7.724943892473	1
5	324	8.032551029549	1
5	373	8.724946284361	1
5	397	9.032553460512	1
5	454	9.724948726225	1
5	488	10.032542938063	1
5	515	10.038316039658	1
5	572	10.724952298835	1
5	606	11.032546539832	1
5	633	11.038319683109	1
5	686	11.72494291337	1
5	724	12.032550171372	1
5	751	12.038323358131	1
5	812	12.724946545467	1
5	860	13.016122111373	1
5	893	13.032542111902	1
5	926	13.038315337619	1
5	987	13.724951480478	1
5	1035	14.016114096402	1
5	1064	14.032547097106	1
5	1101	14.038320354551	1
5	1162	14.724943471911	1
5	1210	15.016119116189	1
5	1239	15.032552117867	1
5	1276	15.038312392746	1
5	1345	15.724948506372	1
5	1400	15.750664229045	1
5	1442	16.016112224788	1
5	1469	16.03254523295	1
5	1520	16.038318495583	1
5	1593	16.724954632157	1
5	1644	16.750657341569	1
14	4	0.3	1.4276208928798
14	5	0.4	1.5553504369406
14	6	0.5	1.6547258140606
14	7	0.6	1.7983555805977
14	17	0.7	1.8323674505787
14	18	0.8	2.0110897446338
14	19	0.9	1.970451684244
14	20	1	2.244901373431
14	21	1.1	2.2119208452933
14	22	1.2	2.2548819012347
14	23	1.3	2.5345448660167
14	24	1.4	2.6013847819414
14	25	1.5	2.852151772081
14	26	1.6	2.3526342216865
14	36	1.7	3.339605186172
14	37	1.8	2.4276646371033
14	38	1.9	3.3234379637286
14	39	2	3.3108190720898
14	40	2.1	3.2988402737822
14	41	2.2	2.9578171889378
14	42	2.3	2.9959376211745
14	43	2.4	3.4908200907348
14	44	2.5	3.6670806850063
14	45	2.6	3.6268696198063
14	55	2.7	4.0205201967415
14	56	2.8	3.1988957479633
14	57	2.9	3.4137976506977
14	58	3	4.907912272511
14	59	3.1	4.5496391886597
14	60	3.2	5.1843707050129
14	61	3.3	5.490502883119
14	62	3.4	3.8970556575359
14	63	3.5	4.0812734992789
14	64	3.6	3.9458891055838
14	80	3.7	3.7593760917064
14	96	3.8	4.2273339749307
14	97	3.9	5.1045553963918
14	98	4	4.4294934204996
14	99	4.1	6.1704815888201
14	100	4.2	4.9722185416067
14	101	4.3	6.3796667209292
14	102	4.4	4.3550328563445
14	103	4.5	5.5724689565354
14	104	4.6	5.9783016536976
14	120	4.7	6.531517038645
14	136	4.8	5.1600288586713
14	137	4.9	6.1886912441601
14	138	5	5.9549957283831
14	139	5.1	7.7853608744789
14	140	5.2	6.0293065596097
14	141	5.3	6.1389862136434
14	142	5.4	6.215380184048
14	143	5.5	5.2080809029875
14	144	5.6	6.1561018361202
14	160	5.7	7.3629412347938
14	176	5.8	7.2141082079045
14	177	5.9	6.3899916329279
14	178	6	8.8173762262081
14	179	6.1	6.712915009577
14	180	6.2	6.7856909201694
14	181	6.3	8.0773156423548
14	182	6.4	8.3743676988308
14	183	6.5	8.4713421478856
14	184	6.6	8.1436375074094
14	206	6.7	6.1246890190291
14	228	6.8	9.3014481119437
14	229	6.9	6.1272339967354
14	230	7	9.3496226877566
14	252	7.1	8.5304672898817
14	253	7.2	9.1242607840614
14	254	7.3	0.973
14	255	7.4	4.3577761273913
14	256	7.5	0.973
14	257	7.6	2.5720389208699
14	279	7.7	2.8766605061585
14	301	7.8	4.3165487169568
14	302	7.9	0.973
14	303	8	1.5897409358382
14	325	8.1	4.2992840120413
14	326	8.2	3.8192287130312
14	327	8.3	0.973
14	328	8.4	4.9896392768023
14	329	8.5	0.973
14	330	8.6	3.2116257252267
14	352	8.7	2.8822162993739
14	374	8.8	0.973
14	375	8.9	2.2705069044256
14	376	9	3.8308782287708
14	398	9.1	2.0735985700595
14	399	9.2	0.973
14	400	9.3	2.8376475775941
14	401	9.4	1.3397800903168
14	402	9.5	0.973
14	403	9.6	0.973
14	431	9.7	2.6721583083952
14	459	9.8	1.7699536569376
14	460	9.9	4.1362624045135
14	461	10	0.973
14	516	10.1	0.973
14	517	10.2	0.973
14	518	10.3	0.973
14	519	10.4	0.973
14	520	10.5	0.973
14	521	10.6	0.973
14	549	10.7	0.973
14	577	10.8	0.973
14	578	10.9	0.973
14	579	11	0.973
14	634	11.1	0.973
14	635	11.2	0.973
14	636	11.3	0.973
14	637	11.4	0.973
14	638	11.5	0.973
14	639	11.6	0.973
14	667	11.7	0.973
14	695	11.8	0.973
14	696	11.9	0.973
14	697	12	0.973
14	752	12.1	0.973
14	753	12.2	0.973
14	754	12.3	0.973
14	755	12.4	0.973
14	756	12.5	0.973
14	757	12.6	0.973
14	791	12.7	0.973
14	825	12.8	0.973
14	826	12.9	0.973
14	827	13	0.973
14	927	13.1	0.973
14	928	13.2	0.973
14	929	13.3	0.973
14	930	13.4	0.973
14	931	13.5	0.973
14	932	13.6	3.5735574093087
14	966	13.7	3.7500424838715
14	1000	13.8	3.9266738352852
14	1001	13.9	4.1034612054572
14	1002	14	4.2804143362946
14	1102	14.1	4.4575429697045
14	1103	14.2	4.6348568475942
14	1104	14.3	4.8123657118707
14	1105	14.4	4.9900793044413
14	1106	14.5	3.8570439909308
14	1107	14.6	3.9658166612094
14	1141	14.7	4.9321216693566
14	1175	14.8	4.746637985347
14	1176	14.9	4.5696051347275
14	1177	15	5.2216510129458
14	1277	15.1	4.4214073361883
14	1278	15.2	4.2489042048499
14	1279	15.3	5.4585271853975
14	1280	15.4	4.6050085823935
14	1281	15.5	4.8474587574368
14	1282	15.6	4.5203652490089
14	1322	15.7	5.9819080005712
14	1401	15.8	5.6131830759796
14	1402	15.9	6.5511640891088
14	1403	16	7.0908903175858
14	1521	16.1	6.7157379063457
14	1522	16.2	7.3807846395105
14	1523	16.3	5.6087545858803
14	1524	16.4	7.7880890112275
14	1525	16.5	5.7357624026778
14	1526	16.6	6.2165560631356
14	1566	16.7	7.5164231263597
14	1645	16.8	6.7326702205247
14	1646	16.9	6.0964562366966
14	1647	17	7.981273887304
13	4	0.3	2.4479752470855
13	5	0.4	2.3290637582572
13	6	0.5	2.1818481258762
13	7	0.6	2.2357036410334
13	17	0.7	1.9855717337837
13	18	0.8	2.1556800054752
13	19	0.9	1.8177961522857
13	20	1	2.1703654659723
13	21	1.1	1.8999668675033
13	22	1.2	1.8135391334582
13	23	1.3	2.1003037793096
13	24	1.4	2.0311366270296
13	25	1.5	2.213205013168
13	26	1.6	1.4406950977165
13	36	1.7	2.5262731315568
13	37	1.8	1.3472384067252
13	38	1.9	2.2455468171276
13	39	2	2.1015260222834
13	40	2.1	1.979035354848
13	41	2.2	1.5707574565429
13	42	2.3	1.5441806555958
13	43	2.4	1.9124366020085
13	44	2.5	1.9760296771768
13	45	2.6	1.861542067118
13	55	2.7	2.0893797688885
13	56	2.8	1.3967243768042
13	57	2.9	1.5130976005224
13	58	3	2.5076531236758
13	59	3.1	2.16138498988
13	60	3.2	2.4867319139419
13	61	3.3	2.5737160811434
13	62	3.4	1.5175942043075
13	63	3.5	1.5883962160442
13	64	3.6	1.4689842111664
13	80	3.7	1.3277961542364
13	96	3.8	1.5610938670114
13	97	3.9	2.0000768283615
13	98	4	1.5853120716521
13	99	4.1	2.4462432491127
13	100	4.2	1.7681026779115
13	101	4.3	2.413640728849
13	102	4.4	1.3719304058002
13	103	4.5	1.9215971733676
13	104	4.6	2.0609394765459
13	120	4.7	2.2560777051607
13	136	4.8	1.5934962075436
13	137	4.9	2.0070045632543
13	138	5	1.8610358671751
13	139	5.1	2.5755732625723
13	140	5.2	1.7970738488948
13	141	5.3	1.8042755607981
13	142	5.4	1.7979858017527
13	143	5.5	1.3731275021331
13	144	5.6	1.7136336127995
13	160	5.7	2.1326397273224
13	176	5.8	2.0318584615365
13	177	5.9	1.6930794459535
13	178	6	2.5217068935512
13	179	6.1	1.7332032753387
13	180	6.2	1.7281707641901
13	181	6.3	2.1344021787401
13	182	6.4	2.1899431454483
13	183	6.5	2.1774386041798
13	184	6.6	2.0298180325888
13	206	6.7	1.3533659499604
13	228	6.8	2.3284602138447
13	229	6.9	1.3061105647124
13	230	7	2.2707209182903
13	252	7.1	1.9828932433389
13	253	7.2	2.1237779836318
13	254	7.3	-0.67051755650901
13	255	7.4	0.69754018457607
13	256	7.5	-1.0548045324627
13	257	7.6	0.16715116663836
13	279	7.7	0.25759127894418
13	301	7.8	0.68477199978661
13	302	7.9	-1.0167235876667
13	303	8	-0.12813790892251
13	325	8.1	0.68328243996948
13	326	8.2	0.53556285242085
13	327	8.3	-1.2225186239695
13	328	8.4	0.88848049053922
13	329	8.5	-0.51027728305197
13	330	8.6	0.35671765725128
13	352	8.7	0.25667311176656
13	374	8.8	-0.45471310988068
13	375	8.9	0.074922233750119
13	376	9	0.53953699145932
13	398	9.1	0.014076425158418
13	399	9.2	-0.306093408796
13	400	9.3	0.2428024208173
13	401	9.4	-0.20489069765899
13	402	9.5	-0.38623889465816
13	403	9.6	-0.31515522389672
13	431	9.7	0.1964605357265
13	459	9.8	-0.074590725474994
13	460	9.9	0.63237314489671
13	461	10	-3.7140856953146
13	516	10.1	-2.9621553461115
13	517	10.2	-3.7178356585583
13	518	10.3	-3.7177556634409
13	519	10.4	-3.5125273090237
13	520	10.5	-3.4331098520423
13	521	10.6	-3.3109522588677
13	549	10.7	-3.0716847170398
13	577	10.8	-3.5687991781258
13	578	10.9	-2.5431661972141
13	579	11	-2.6910954925232
13	634	11.1	-4.0311948625099
13	635	11.2	-3.1110581454228
13	636	11.3	-2.49591556567
13	637	11.4	-3.6622133962449
13	638	11.5	-3.0757743640984
13	639	11.6	-3.1280177515175
13	667	11.7	-3.2863787560456
13	695	11.8	-2.347147176928
13	696	11.9	-3.4019422405471
13	697	12	-1.9204662744008
13	752	12.1	-3.6730069372524
13	753	12.2	-2.0395810378463
13	754	12.3	-3.2232254993577
13	755	12.4	-3.1520001716355
13	756	12.5	-1.6885349946361
13	757	12.6	-3.3654656086344
13	791	12.7	-1.6873615517547
13	825	12.8	-3.5726926190638
13	826	12.9	-2.5341890137759
13	827	13	-1.7968513860919
13	927	13.1	-1.888760944261
13	928	13.2	-2.3341686997751
13	929	13.3	-2.7334543021512
13	930	13.4	-1.5447099117149
13	931	13.5	-2.7997778972337
13	932	13.6	2.6
13	966	13.7	2.6
13	1000	13.8	2.6
13	1001	13.9	2.6
13	1002	14	2.6
13	1102	14.1	2.6
13	1103	14.2	2.6
13	1104	14.3	2.6
13	1105	14.4	2.6
13	1106	14.5	1.7197939507896
13	1107	14.6	1.7379983353661
13	1141	14.7	2.3020148800686
13	1175	14.8	2.10149694141
13	1176	14.9	1.9243754500989
13	1177	15	2.2443953567417
13	1277	15.1	1.7161567086354
13	1278	15.2	1.5746387521736
13	1279	15.3	2.1921998833306
13	1280	15.4	1.6749410319608
13	1281	15.5	1.7598562344676
13	1282	15.6	1.5501456555212
13	1322	15.7	2.2400381221902
13	1401	15.8	1.9979047445813
13	1402	15.9	2.385553467134
13	1403	16	2.5604111445136
13	1521	16.1	2.317314357264
13	1522	16.2	2.5407009731513
13	1523	16.3	1.7195577013073
13	1524	16.4	2.5879879088374
13	1525	16.5	1.6854567790404
13	1526	16.6	1.8454187302152
13	1566	16.7	2.3160762974527
13	1645	16.8	1.9600512881996
13	1646	16.9	1.6788874064805
13	1647	17	2.3473551146453
12	3	0.2	0.25286542447004
12	4	0.3	0.49766294917859
12	5	0.4	0.73056932500431
12	6	0.5	0.94875413759194
12	7	0.6	1.1723245016953
12	17	0.7	1.3708816750736
12	18	0.8	1.5864496756212
12	19	0.9	1.7682292908497
12	20	1	1.985265837447
12	21	1.1	2.1752625241973
12	22	1.2	2.3566164375431
12	23	1.3	2.5666468154741
12	24	1.4	2.769760478177
12	25	1.5	2.9910809794938
12	26	1.6	3.1351504892655
12	36	1.7	3.3877778024212
12	37	1.8	3.5225016430937
12	38	1.9	3.7470563248065
12	39	2	3.9572089270348
12	40	2.1	4.1551124625196
12	41	2.2	4.3121882081739
12	42	2.3	4.4666062737335
12	43	2.4	4.6578499339343
12	44	2.5	4.855452901652
12	45	2.6	5.0416071083638
12	55	2.7	5.2505450852527
12	56	2.8	5.3902175229331
12	57	2.9	5.5415272829853
12	58	3	5.7922925953529
12	59	3.1	6.0084310943409
12	60	3.2	6.2571042857351
12	61	3.3	6.5144758938494
12	62	3.4	6.6662353142802
12	63	3.5	6.8250749358846
12	64	3.6	6.9719733570013
12	80	3.7	7.1047529724249
12	96	3.8	7.260862359126
12	97	3.9	7.4608700419622
12	98	4	7.6194012491274
12	99	4.1	7.8640255740387
12	100	4.2	8.0408358418298
12	101	4.3	8.2821999147147
12	102	4.4	8.4193929552947
12	103	4.5	8.6115526726315
12	104	4.6	8.8176466202861
12	120	4.7	9.0432543908022
12	136	4.8	9.2026040115565
12	137	4.9	9.403304467882
12	138	5	9.5894080545995
12	139	5.1	9.8469653808567
12	140	5.2	10.026672765746
12	141	5.3	10.207100321826
12	142	5.4	10.386898902001
12	143	5.5	10.524211652215
12	144	5.6	10.695575013495
12	160	5.7	10.908838986227
12	176	5.8	11.11202483238
12	177	5.9	11.281332776976
12	178	6	11.533503466331
12	179	6.1	11.706823793865
12	180	6.2	11.879640870284
12	181	6.3	12.093081088158
12	182	6.4	12.312075402703
12	183	6.5	12.529819263121
12	184	6.6	12.732801066379
12	206	6.7	12.868137661375
12	228	6.8	13.10098368276
12	229	6.9	13.231594739231
12	230	7	13.45866683106
12	252	7.1	13.656956155394
12	253	7.2	13.869333953757
12	254	7.3	13.802282198106
12	255	7.4	13.872036216564
12	256	7.5	13.766555763318
12	257	7.6	13.783270879982
12	279	7.7	13.809030007876
12	301	7.8	13.877507207855
12	302	7.9	13.775834849088
12	303	8	13.763021058196
12	325	8.1	13.831349302193
12	326	8.2	13.884905587435
12	327	8.3	13.762653725038
12	328	8.4	13.851501774092
12	329	8.5	13.800474045787
12	330	8.6	13.836145811512
12	352	8.7	13.861813122688
12	374	8.8	13.8163418117
12	375	8.9	13.823834035075
12	376	9	13.877787734221
12	398	9.1	13.879195376737
12	399	9.2	13.848586035857
12	400	9.3	13.872866277939
12	401	9.4	13.852377208173
12	402	9.5	13.813753318707
12	403	9.6	13.782237796318
12	431	9.7	13.80188384989
12	459	9.8	13.794424777343
12	460	9.9	13.857662091833
12	461	10	13.486253522301
12	516	10.1	13.19003798769
12	517	10.2	12.818254421834
12	518	10.3	12.44647885549
12	519	10.4	12.095226124588
12	520	10.5	11.751915139383
12	521	10.6	11.420819913497
12	549	10.7	11.113651441793
12	577	10.8	10.75677152398
12	578	10.9	10.502454904259
12	579	11	10.233345355006
12	634	11.1	9.8302258687554
12	635	11.2	9.5191200542132
12	636	11.3	9.2695284976461
12	637	11.4	8.9033071580217
12	638	11.5	8.5957297216118
12	639	11.6	8.2829279464601
12	667	11.7	7.9542900708555
12	695	11.8	7.7195753531627
12	696	11.9	7.379381129108
12	697	12	7.1873345016679
12	752	12.1	6.8200338079427
12	753	12.2	6.6160757041581
12	754	12.3	6.2937531542223
12	755	12.4	5.9785531370587
12	756	12.5	5.8096996375951
12	757	12.6	5.4731530767317
12	791	12.7	5.3044169215562
12	825	12.8	4.9471476596498
12	826	12.9	4.6937287582722
12	827	13	4.5140436196631
12	927	13.1	4.3251675252369
12	928	13.2	4.0917506552594
12	929	13.3	3.8184052250443
12	930	13.4	3.6639342338728
12	931	13.5	3.3839564441494
12	932	13.6	3.6439564441494
12	966	13.7	3.9039564441494
12	1000	13.8	4.1639564441494
12	1001	13.9	4.4239564441494
12	1002	14	4.6839564441494
12	1102	14.1	4.9439564441494
12	1103	14.2	5.2039564441494
12	1104	14.3	5.4639564441494
12	1105	14.4	5.7239564441494
12	1106	14.5	5.8959358392284
12	1107	14.6	6.069735672765
12	1141	14.7	6.2999371607719
12	1175	14.8	6.5100868549129
12	1176	14.9	6.7025243999228
12	1177	15	6.9269639355969
12	1277	15.1	7.0985796064605
12	1278	15.2	7.2560434816778
12	1279	15.3	7.4752634700109
12	1280	15.4	7.642757573207
12	1281	15.5	7.8187431966537
12	1282	15.6	7.9737577622059
12	1322	15.7	8.1977615744249
12	1401	15.8	8.397552048883
12	1402	15.9	8.6361073955964
12	1403	16	8.8921485100478
12	1521	16.1	9.1238799457742
12	1522	16.2	9.3779500430893
12	1523	16.3	9.54990581322
12	1524	16.4	9.8087046041038
12	1525	16.5	9.9772502820078
12	1526	16.6	10.161792155029
12	1566	16.7	10.393399784775
12	1645	16.8	10.589404913595
12	1646	16.9	10.757293654243
12	1647	17	10.992029165707
11	2	0.1	1578.0861504339
11	3	0.2	1578.0861504339
11	4	0.3	1578.0948660281
11	5	0.4	1578.1120191384
11	6	0.5	1578.1371999085
11	7	0.6	1578.1699009249
11	17	0.7	1578.2103078142
11	18	0.8	1578.2575584371
11	19	0.9	1578.3122391133
11	20	1	1578.3731852453
11	21	1.1	1578.4416120471
11	22	1.2	1578.5165875256
11	23	1.3	1578.5978137888
11	24	1.4	1578.6862792373
11	25	1.5	1578.7817454701
11	26	1.6	1578.8848400284
11	36	1.7	1578.9929002775
11	37	1.8	1579.109667914
11	38	1.9	1579.2310791202
11	39	2	1579.3602301264
11	40	2.1	1579.4966245294
11	41	2.2	1579.6398401391
11	42	2.3	1579.7884697281
11	43	2.4	1579.9424216952
11	44	2.5	1580.1029653195
11	45	2.6	1580.2703197896
11	55	2.7	1580.4440904977
11	56	2.8	1580.6250627376
11	57	2.9	1580.8108491134
11	58	3	1581.0018507317
11	59	3.1	1581.2776015159
11	60	3.2	1581.7051451085
11	61	3.3	1582.1503836084
11	62	3.4	1582.6139359707
11	63	3.5	1583.0882871207
11	64	3.6	1583.5739408657
11	80	3.7	1584.0700475015
11	96	3.8	1584.5756023731
11	97	3.9	1585.092265564
11	98	4	1585.6231607571
11	99	4.1	1586.1653365986
11	100	4.2	1586.7249192409
11	101	4.3	1587.2970832204
11	102	4.4	1587.8864220101
11	103	4.5	1588.4855230832
11	104	4.6	1589.098297718
11	120	4.7	1589.7257374367
11	136	4.8	1590.3692307901
11	137	4.9	1591.0240630284
11	138	5	1591.6931765648
11	139	5.1	1592.3755327258
11	140	5.2	1593.0762159638
11	141	5.3	1593.789686691
11	142	5.4	1594.5159961507
11	143	5.5	1595.2550995881
11	144	5.6	1596.0039738277
11	160	5.7	1596.765041816
11	176	5.8	1597.5412850883
11	177	5.9	1598.3319865121
11	178	6	1599.1347354287
11	179	6.1	1599.9554281235
11	180	6.2	1600.788453822
11	181	6.3	1601.6337767122
11	182	6.4	1602.4942874275
11	183	6.5	1603.3703811811
11	184	6.6	1604.2619689954
11	206	6.7	1605.168000442
11	228	6.8	1606.0836620722
11	229	6.9	1607.0158923911
11	230	7	1607.9574166369
11	252	7.1	1608.9150987137
11	253	7.2	1609.8868905203
11	254	7.3	1610.873794551
11	255	7.4	1611.8559273621
11	256	7.5	1612.8430236792
11	257	7.6	1613.8226142945
11	279	7.7	1614.803394312
11	301	7.8	1615.7860072795
11	302	7.9	1616.7734928969
11	303	8	1617.7537437873
11	325	8.1	1618.7330828821
11	326	8.2	1619.7172840293
11	327	8.3	1620.7052960955
11	328	8.4	1621.6846090527
11	329	8.5	1622.6702441946
11	330	8.6	1623.6522483425
11	352	8.7	1624.6367907962
11	374	8.8	1625.6231596656
11	375	8.9	1626.6062929211
11	376	9	1627.589959302
11	398	9.1	1628.5774648814
11	399	9.2	1629.5650706254
11	400	9.3	1630.5504982909
11	401	9.4	1631.5376536734
11	402	9.5	1632.5233511087
11	403	9.6	1633.5063001737
11	431	9.7	1634.4870066792
11	459	9.8	1635.4691111455
11	460	9.9	1636.4506848436
11	461	10	1637.4367583375
11	516	10.1	1638.3964034086
11	517	10.2	1639.3349705888
11	518	10.3	1640.2470826637
11	519	10.4	1641.1327402014
11	520	10.5	1641.9934035512
11	521	10.6	1642.8296378264
11	549	10.7	1643.6423122678
11	577	10.8	1644.4331294363
11	578	10.9	1645.1985520022
11	579	11	1645.9458780903
11	634	11.1	1646.6938285446
11	635	11.2	1647.4684687229
11	636	11.3	1648.218593182
11	637	11.4	1648.9490493601
11	638	11.5	1649.6506466111
11	639	11.6	1650.3280061856
11	667	11.7	1650.9807163952
11	695	11.8	1651.6075293263
11	696	11.9	1652.2158462973
11	697	12	1652.7973553287
11	752	12.1	1653.3637307258
11	753	12.2	1653.9011621429
11	754	12.3	1654.4225212783
11	755	12.4	1654.9184807949
11	756	12.5	1655.3896019608
11	757	12.6	1655.8474171553
11	791	12.7	1656.2787118517
11	825	12.8	1656.781492712
11	826	12.9	1657.2694992935
11	827	13	1657.7325076126
11	927	13.1	1658.1777910655
11	928	13.2	1658.6044430202
11	929	13.3	1659.0080697937
11	930	13.4	1659.384732672
11	931	13.5	1659.7461579097
11	932	13.6	1660.0799650103
11	966	13.7	1660.4394195583
11	1000	13.8	1660.8245215537
11	1001	13.9	1661.2352709975
11	1002	14	1661.6716678888
11	1102	14.1	1662.1337122275
11	1103	14.2	1662.6214040136
11	1104	14.3	1663.1347432481
11	1105	14.4	1663.673729931
11	1106	14.5	1664.2383640604
11	1107	14.6	1664.8243380953
11	1141	14.7	1665.4297988424
11	1175	14.8	1666.0582223637
11	1176	14.9	1666.7076084763
11	1177	15	1667.3723302623
11	1277	15.1	1668.0565679995
11	1278	15.2	1668.7577577401
11	1279	15.3	1669.4497606894
11	1280	15.4	1670.1241558176
11	1281	15.5	1670.8144779969
11	1282	15.6	1671.4352928065
11	1322	15.7	1672.0190366879
11	1401	15.8	1672.6178788329
11	1402	15.9	1673.1455413727
11	1403	16	1673.6881936044
11	1521	16.1	1674.2469342519
11	1522	16.2	1674.8202358093
11	1523	16.3	1675.4095019326
11	1524	16.4	1676.0095729446
11	1525	16.5	1676.6259056516
11	1526	16.6	1677.2528289743
11	1566	16.7	1677.891348036
11	1645	16.8	1678.5444202293
11	1646	16.9	1679.2098084586
11	1647	17	1679.900635263
10	2	0.1	2415.8694684898
10	3	0.2	2415.8694684898
10	4	0.3	2415.845732873
10	5	0.4	2415.7990189458
10	6	0.5	2415.7304428896
10	7	0.6	2415.6413865678
10	17	0.7	2415.5313444568
10	18	0.8	2415.4026644597
10	19	0.9	2415.253749828
10	20	1	2415.0877721626
10	21	1.1	2414.9014220152
10	22	1.2	2414.6972375255
10	23	1.3	2414.476029961
10	24	1.4	2414.2351075599
10	25	1.5	2413.9751195706
10	26	1.6	2413.6943569791
10	36	1.7	2413.400071073
10	37	1.8	2413.0820719008
10	38	1.9	2412.7514266602
10	39	2	2412.3997032359
10	40	2.1	2412.0282535021
10	41	2.2	2411.638227237
10	42	2.3	2411.2334568062
10	43	2.4	2410.8141916771
10	44	2.5	2410.3769751566
10	45	2.6	2409.9212103181
10	55	2.7	2409.4479718177
10	56	2.8	2408.9551210204
10	57	2.9	2408.449159647
10	58	3	2407.9289953412
10	59	3.1	2407.434272861
10	60	3.2	2407.0121586007
10	61	3.3	2406.5725741392
10	62	3.4	2406.114908381
10	63	3.5	2405.6465809684
10	64	3.6	2405.1670944914
10	80	3.7	2404.677287863
10	96	3.8	2404.1781529811
10	97	3.9	2403.6680508436
10	98	4	2403.143897435
10	99	4.1	2402.6086066293
10	100	4.2	2402.05613007
10	101	4.3	2401.4912319428
10	102	4.4	2400.9093771066
10	103	4.5	2400.3178839575
10	104	4.6	2399.7128908854
10	120	4.7	2399.0934189598
10	136	4.8	2398.4580972631
10	137	4.9	2397.8115806727
10	138	5	2397.1509641412
10	139	5.1	2396.4772731521
10	140	5.2	2395.7854878188
10	141	5.3	2395.0810773844
10	142	5.4	2394.3639912542
10	143	5.5	2393.6342736162
10	144	5.6	2392.8949092553
10	160	5.7	2392.1435059916
10	176	5.8	2391.3771201536
10	177	5.9	2390.5964597668
10	178	6	2389.8039048777
10	179	6.1	2388.9936340754
10	180	6.2	2388.1711868861
10	181	6.3	2387.3365986652
10	182	6.4	2386.4870154882
10	183	6.5	2385.6220471597
10	184	6.6	2384.7417815286
10	206	6.7	2383.8472556834
10	228	6.8	2382.9432219474
10	229	6.9	2382.0228299268
10	230	7	2381.0932620018
10	252	7.1	2380.1477414317
10	253	7.2	2379.1882903115
10	254	7.3	2378.213918874
10	255	7.4	2377.2442580678
10	256	7.5	2376.2696967865
10	257	7.6	2375.3025458929
10	279	7.7	2374.3342207012
10	301	7.8	2373.3640858366
10	302	7.9	2372.3891401981
10	303	8	2371.4213374149
10	325	8.1	2370.4544348472
10	326	8.2	2369.4827319705
10	327	8.3	2368.5072665688
10	328	8.4	2367.5403898078
10	329	8.5	2366.5672711462
10	330	8.6	2365.5977373691
10	352	8.7	2364.6256975201
10	374	8.8	2363.6518544486
10	375	8.9	2362.6812059031
10	376	9	2361.7100310014
10	398	9.1	2360.735065655
10	399	9.2	2359.7600014166
10	400	9.3	2358.7870875963
10	401	9.4	2357.8124680001
10	402	9.5	2356.8392878361
10	403	9.6	2355.8688211417
10	431	9.7	2354.9005685279
10	459	9.8	2353.9309357069
10	460	9.9	2352.9618269132
10	461	10	2351.9882754667
10	516	10.1	2351.0408168308
10	517	10.2	2350.1141684195
10	518	10.3	2349.2136391635
10	519	10.4	2348.339228501
10	520	10.5	2347.4894946273
10	521	10.6	2346.6638796061
10	549	10.7	2345.8615252355
10	577	10.8	2345.0807505734
10	578	10.9	2344.3250480309
10	579	11	2343.5872121612
10	634	11.1	2342.8907783106
10	635	11.2	2342.2856642498
10	636	11.3	2341.6997007666
10	637	11.4	2341.12910126
10	638	11.5	2340.5810450484
10	639	11.6	2340.0519222198
10	667	11.7	2339.5420543662
10	695	11.8	2339.0524163019
10	696	11.9	2338.5772264486
10	697	12	2338.1229777527
10	752	12.1	2337.6805507704
10	753	12.2	2337.2607335243
10	754	12.3	2336.8534712204
10	755	12.4	2336.4660499566
10	756	12.5	2336.0980312951
10	757	12.6	2335.74040666
10	791	12.7	2335.4034986452
10	825	12.8	2335.2700123627
10	826	12.9	2335.188980291
10	827	13	2335.1120991078
10	927	13.1	2335.0381610871
10	928	13.2	2334.9673167726
10	929	13.3	2334.9002957222
10	930	13.4	2334.837751948
10	931	13.5	2334.7777383397
10	932	13.6	2334.7223106428
10	966	13.7	2334.6626242619
10	1000	13.8	2334.5986791969
10	1001	13.9	2334.5304754479
10	1002	14	2334.458013015
10	1102	14.1	2334.381291898
10	1103	14.2	2334.300312097
10	1104	14.3	2334.2150736119
10	1105	14.4	2334.1255764429
10	1106	14.5	2334.0318205898
10	1107	14.6	2333.9721643698
10	1141	14.7	2333.9294259641
10	1175	14.8	2333.8850666567
10	1176	14.9	2333.839227637
10	1177	15	2333.8818538701
10	1277	15.1	2333.9897291891
10	1278	15.2	2334.1002771212
10	1279	15.3	2334.2918344826
10	1280	15.4	2334.612991448
10	1281	15.5	2334.9392396011
10	1282	15.6	2335.3992004627
10	1322	15.7	2335.9412483531
10	1401	15.8	2336.499756341
10	1402	15.9	2337.1531597417
10	1403	16	2337.8251248463
10	1521	16.1	2338.5170122014
10	1522	16.2	2339.2269303
10	1523	16.3	2339.9566172867
10	1524	16.4	2340.6996839445
10	1525	16.5	2341.4628874242
10	1526	16.6	2342.2392052398
10	1566	16.7	2343.0298820361
10	1645	16.8	2343.8385799429
10	1646	16.9	2344.6625287725
10	1647	17	2345.4868314255
17	79	3.627450041126	1
17	119	4.627451143672	1
17	159	5.627452284014	1
17	201	6.627453462502	1
17	247	7.032548556609	1
17	274	7.627455775871	1
17	320	8.032550909074	1
17	347	8.627445156531	1
17	393	9.032553330481	1
17	422	9.627447593265	1
17	484	10.03254280495	1
17	511	10.038315906719	1
17	540	10.627451169695	1
17	602	11.032546414034	1
17	629	11.038319557358	1
17	658	11.627454799232	1
17	720	12.032550063603	1
17	747	12.038323250368	1
17	778	12.627445452962	1
17	856	13.016122026561	1
17	885	13.032542026728	1
17	922	13.038315252501	1
17	953	13.627450409967	1
17	1031	14.016114032562	1
17	1056	14.032547032601	1
17	1097	14.038320290344	1
17	1128	14.627455413639	1
17	1206	15.016119064955	1
17	1231	15.032552064978	1
17	1272	15.03831234117	1
17	1305	15.627447449331	1
17	1396	15.750664188331	1
17	1438	16.016112187293	1
17	1465	16.032545187455	1
17	1516	16.038318456352	1
17	1549	16.627453562795	1
17	1640	16.750657312539	1
16	79	3.627450041126	1
16	119	4.627451143672	1
16	159	5.627452284014	1
16	201	6.627453462502	1
16	247	7.032548556609	1
16	274	7.627455775871	1
16	320	8.032550909074	1
16	347	8.627445156531	1
16	393	9.032553330481	1
16	422	9.627447593265	1
16	484	10.03254280495	1
16	511	10.038315906719	1
16	540	10.627451169695	1
16	602	11.032546414034	1
16	629	11.038319557358	1
16	658	11.627454799232	1
16	720	12.032550063603	1
16	747	12.038323250368	1
16	778	12.627445452962	1
16	856	13.016122026561	1
16	885	13.032542026728	1
16	922	13.038315252501	1
16	953	13.627450409967	1
16	1031	14.016114032562	1
16	1056	14.032547032601	1
16	1097	14.038320290344	1
16	1128	14.627455413639	1
16	1206	15.016119064955	1
16	1231	15.032552064978	1
16	1272	15.03831234117	1
16	1305	15.627447449331	1
16	1396	15.750664188331	1
16	1438	16.016112187293	1
16	1465	16.032545187455	1
16	1516	16.038318456352	1
16	1549	16.627453562795	1
16	1640	16.750657312539	1
25	61	3.3	1.4374867592412