file 7202222 1413062666                                         
version 2
run Njl-0-20141011-23:23:51-4057
attr configname Njl
attr datetime 20141011-23:23:51
attr experiment Njl
attr inifile omnetpp.ini
attr iterationvars ""
attr iterationvars2 $repetition=0
attr measurement ""
attr network org.car2x.veins.nodes.FranciscoScenario
attr processid 4057
attr repetition 0
attr replication #0
attr resultdir results
attr runnumber 0
attr seedset 0

vector 10  FranciscoScenario.node[0].veinsmobility  posx  ETV
vector 11  FranciscoScenario.node[0].veinsmobility  posy  ETV
vector 12  FranciscoScenario.node[0].veinsmobility  speed  ETV
vector 13  FranciscoScenario.node[0].veinsmobility  acceleration  ETV
vector 14  FranciscoScenario.node[0].veinsmobility  co2emission  ETV
vector 21  FranciscoScenario.node[1].veinsmobility  posx  ETV
vector 22  FranciscoScenario.node[1].veinsmobility  posy  ETV
vector 23  FranciscoScenario.node[1].veinsmobility  speed  ETV
vector 24  FranciscoScenario.node[1].veinsmobility  acceleration  ETV
vector 25  FranciscoScenario.node[1].veinsmobility  co2emission  ETV
vector 0  FranciscoScenario.stats  allBeaconsReceivedSignal:vector  ETV
attr description  "All Beacons Received"
vector 3  FranciscoScenario.stats  allMessagesReceivedSignal:vector  ETV
attr description  "All Messages Received"
vector 16  FranciscoScenario.node[1].appl  beaconReceivedSignal:vector  ETV
attr description  "Beacon Message Received"
vector 17  FranciscoScenario.node[1].appl  messageReceivedSignal:vector  ETV
attr description  "Message Received"
vector 5  FranciscoScenario.node[0].appl  beaconReceivedSignal:vector  ETV
attr description  "Beacon Message Received"
vector 6  FranciscoScenario.node[0].appl  messageReceivedSignal:vector  ETV
attr description  "Message Received"
vector 32  FranciscoScenario.node[2].veinsmobility  posx  ETV
vector 33  FranciscoScenario.node[2].veinsmobility  posy  ETV
vector 34  FranciscoScenario.node[2].veinsmobility  speed  ETV
vector 35  FranciscoScenario.node[2].veinsmobility  acceleration  ETV
vector 36  FranciscoScenario.node[2].veinsmobility  co2emission  ETV
vector 27  FranciscoScenario.node[2].appl  beaconReceivedSignal:vector  ETV
attr description  "Beacon Message Received"
vector 28  FranciscoScenario.node[2].appl  messageReceivedSignal:vector  ETV
attr description  "Message Received"
vector 43  FranciscoScenario.node[3].veinsmobility  posx  ETV
vector 44  FranciscoScenario.node[3].veinsmobility  posy  ETV
vector 45  FranciscoScenario.node[3].veinsmobility  speed  ETV
vector 46  FranciscoScenario.node[3].veinsmobility  acceleration  ETV
vector 47  FranciscoScenario.node[3].veinsmobility  co2emission  ETV
vector 38  FranciscoScenario.node[3].appl  beaconReceivedSignal:vector  ETV
attr description  "Beacon Message Received"
vector 39  FranciscoScenario.node[3].appl  messageReceivedSignal:vector  ETV
attr description  "Message Received"
vector 54  FranciscoScenario.node[4].veinsmobility  posx  ETV
vector 55  FranciscoScenario.node[4].veinsmobility  posy  ETV
vector 56  FranciscoScenario.node[4].veinsmobility  speed  ETV
vector 57  FranciscoScenario.node[4].veinsmobility  acceleration  ETV
vector 58  FranciscoScenario.node[4].veinsmobility  co2emission  ETV
vector 49  FranciscoScenario.node[4].appl  beaconReceivedSignal:vector  ETV
attr description  "Beacon Message Received"
vector 50  FranciscoScenario.node[4].appl  messageReceivedSignal:vector  ETV
attr description  "Message Received"
vector 65  FranciscoScenario.node[5].veinsmobility  posx  ETV
vector 66  FranciscoScenario.node[5].veinsmobility  posy  ETV
vector 67  FranciscoScenario.node[5].veinsmobility  speed  ETV
vector 68  FranciscoScenario.node[5].veinsmobility  acceleration  ETV
vector 69  FranciscoScenario.node[5].veinsmobility  co2emission  ETV
vector 60  FranciscoScenario.node[5].appl  beaconReceivedSignal:vector  ETV
attr description  "Beacon Message Received"
vector 61  FranciscoScenario.node[5].appl  messageReceivedSignal:vector  ETV
attr description  "Message Received"
vector 76  FranciscoScenario.node[6].veinsmobility  posx  ETV
vector 77  FranciscoScenario.node[6].veinsmobility  posy  ETV
vector 78  FranciscoScenario.node[6].veinsmobility  speed  ETV
vector 79  FranciscoScenario.node[6].veinsmobility  acceleration  ETV
vector 80  FranciscoScenario.node[6].veinsmobility  co2emission  ETV
vector 71  FranciscoScenario.node[6].appl  beaconReceivedSignal:vector  ETV
attr description  "Beacon Message Received"
vector 72  FranciscoScenario.node[6].appl  messageReceivedSignal:vector  ETV
attr description  "Message Received"
vector 87  FranciscoScenario.node[7].veinsmobility  posx  ETV
vector 88  FranciscoScenario.node[7].veinsmobility  posy  ETV
vector 89  FranciscoScenario.node[7].veinsmobility  speed  ETV
vector 90  FranciscoScenario.node[7].veinsmobility  acceleration  ETV
vector 91  FranciscoScenario.node[7].veinsmobility  co2emission  ETV
vector 82  FranciscoScenario.node[7].appl  beaconReceivedSignal:vector  ETV
attr description  "Beacon Message Received"
vector 83  FranciscoScenario.node[7].appl  messageReceivedSignal:vector  ETV
attr description  "Message Received"
vector 98  FranciscoScenario.node[8].veinsmobility  posx  ETV
vector 99  FranciscoScenario.node[8].veinsmobility  posy  ETV
vector 100  FranciscoScenario.node[8].veinsmobility  speed  ETV
vector 101  FranciscoScenario.node[8].veinsmobility  acceleration  ETV
vector 102  FranciscoScenario.node[8].veinsmobility  co2emission  ETV
vector 93  FranciscoScenario.node[8].appl  beaconReceivedSignal:vector  ETV
attr description  "Beacon Message Received"
vector 94  FranciscoScenario.node[8].appl  messageReceivedSignal:vector  ETV
attr description  "Message Received"
vector 109  FranciscoScenario.node[9].veinsmobility  posx  ETV
vector 110  FranciscoScenario.node[9].veinsmobility  posy  ETV
vector 104  FranciscoScenario.node[9].appl  beaconReceivedSignal:vector  ETV
attr description  "Beacon Message Received"
vector 105  FranciscoScenario.node[9].appl  messageReceivedSignal:vector  ETV
attr description  "Message Received"
vector 111  FranciscoScenario.node[9].veinsmobility  speed  ETV
vector 112  FranciscoScenario.node[9].veinsmobility  acceleration  ETV
vector 113  FranciscoScenario.node[9].veinsmobility  co2emission  ETV
vector 120  FranciscoScenario.node[10].veinsmobility  posx  ETV
vector 121  FranciscoScenario.node[10].veinsmobility  posy  ETV
vector 115  FranciscoScenario.node[10].appl  beaconReceivedSignal:vector  ETV
attr description  "Beacon Message Received"
vector 116  FranciscoScenario.node[10].appl  messageReceivedSignal:vector  ETV
attr description  "Message Received"
vector 122  FranciscoScenario.node[10].veinsmobility  speed  ETV
vector 123  FranciscoScenario.node[10].veinsmobility  acceleration  ETV
vector 124  FranciscoScenario.node[10].veinsmobility  co2emission  ETV
vector 131  FranciscoScenario.node[11].veinsmobility  posx  ETV
vector 132  FranciscoScenario.node[11].veinsmobility  posy  ETV
vector 126  FranciscoScenario.node[11].appl  beaconReceivedSignal:vector  ETV
attr description  "Beacon Message Received"
vector 127  FranciscoScenario.node[11].appl  messageReceivedSignal:vector  ETV
attr description  "Message Received"
vector 133  FranciscoScenario.node[11].veinsmobility  speed  ETV
vector 134  FranciscoScenario.node[11].veinsmobility  acceleration  ETV
vector 135  FranciscoScenario.node[11].veinsmobility  co2emission  ETV
vector 142  FranciscoScenario.node[12].veinsmobility  posx  ETV
vector 143  FranciscoScenario.node[12].veinsmobility  posy  ETV
vector 137  FranciscoScenario.node[12].appl  beaconReceivedSignal:vector  ETV
attr description  "Beacon Message Received"
vector 138  FranciscoScenario.node[12].appl  messageReceivedSignal:vector  ETV
attr description  "Message Received"
vector 144  FranciscoScenario.node[12].veinsmobility  speed  ETV
vector 145  FranciscoScenario.node[12].veinsmobility  acceleration  ETV
vector 146  FranciscoScenario.node[12].veinsmobility  co2emission  ETV
vector 153  FranciscoScenario.node[13].veinsmobility  posx  ETV
vector 154  FranciscoScenario.node[13].veinsmobility  posy  ETV
vector 148  FranciscoScenario.node[13].appl  beaconReceivedSignal:vector  ETV
attr description  "Beacon Message Received"
vector 149  FranciscoScenario.node[13].appl  messageReceivedSignal:vector  ETV
attr description  "Message Received"
vector 155  FranciscoScenario.node[13].veinsmobility  speed  ETV
vector 156  FranciscoScenario.node[13].veinsmobility  acceleration  ETV
vector 157  FranciscoScenario.node[13].veinsmobility  co2emission  ETV
vector 164  FranciscoScenario.node[14].veinsmobility  posx  ETV
vector 165  FranciscoScenario.node[14].veinsmobility  posy  ETV
vector 159  FranciscoScenario.node[14].appl  beaconReceivedSignal:vector  ETV
attr description  "Beacon Message Received"
vector 160  FranciscoScenario.node[14].appl  messageReceivedSignal:vector  ETV
attr description  "Message Received"
vector 166  FranciscoScenario.node[14].veinsmobility  speed  ETV
vector 167  FranciscoScenario.node[14].veinsmobility  acceleration  ETV
vector 168  FranciscoScenario.node[14].veinsmobility  co2emission  ETV
vector 175  FranciscoScenario.node[15].veinsmobility  posx  ETV
vector 176  FranciscoScenario.node[15].veinsmobility  posy  ETV
vector 170  FranciscoScenario.node[15].appl  beaconReceivedSignal:vector  ETV
attr description  "Beacon Message Received"
vector 171  FranciscoScenario.node[15].appl  messageReceivedSignal:vector  ETV
attr description  "Message Received"
vector 177  FranciscoScenario.node[15].veinsmobility  speed  ETV
vector 178  FranciscoScenario.node[15].veinsmobility  acceleration  ETV
vector 179  FranciscoScenario.node[15].veinsmobility  co2emission  ETV
vector 186  FranciscoScenario.node[16].veinsmobility  posx  ETV
vector 187  FranciscoScenario.node[16].veinsmobility  posy  ETV
vector 181  FranciscoScenario.node[16].appl  beaconReceivedSignal:vector  ETV
attr description  "Beacon Message Received"
vector 182  FranciscoScenario.node[16].appl  messageReceivedSignal:vector  ETV
attr description  "Message Received"
vector 188  FranciscoScenario.node[16].veinsmobility  speed  ETV
vector 189  FranciscoScenario.node[16].veinsmobility  acceleration  ETV
vector 190  FranciscoScenario.node[16].veinsmobility  co2emission  ETV
vector 197  FranciscoScenario.node[17].veinsmobility  posx  ETV
vector 198  FranciscoScenario.node[17].veinsmobility  posy  ETV
vector 192  FranciscoScenario.node[17].appl  beaconReceivedSignal:vector  ETV
attr description  "Beacon Message Received"
vector 193  FranciscoScenario.node[17].appl  messageReceivedSignal:vector  ETV
attr description  "Message Received"
vector 199  FranciscoScenario.node[17].veinsmobility  speed  ETV
vector 200  FranciscoScenario.node[17].veinsmobility  acceleration  ETV
vector 201  FranciscoScenario.node[17].veinsmobility  co2emission  ETV
vector 208  FranciscoScenario.node[18].veinsmobility  posx  ETV
vector 209  FranciscoScenario.node[18].veinsmobility  posy  ETV
vector 203  FranciscoScenario.node[18].appl  beaconReceivedSignal:vector  ETV
attr description  "Beacon Message Received"
vector 204  FranciscoScenario.node[18].appl  messageReceivedSignal:vector  ETV
attr description  "Message Received"
vector 210  FranciscoScenario.node[18].veinsmobility  speed  ETV
vector 211  FranciscoScenario.node[18].veinsmobility  acceleration  ETV
vector 212  FranciscoScenario.node[18].veinsmobility  co2emission  ETV
vector 219  FranciscoScenario.node[19].veinsmobility  posx  ETV
vector 220  FranciscoScenario.node[19].veinsmobility  posy  ETV
vector 214  FranciscoScenario.node[19].appl  beaconReceivedSignal:vector  ETV
attr description  "Beacon Message Received"
vector 215  FranciscoScenario.node[19].appl  messageReceivedSignal:vector  ETV
attr description  "Message Received"
vector 221  FranciscoScenario.node[19].veinsmobility  speed  ETV
vector 222  FranciscoScenario.node[19].veinsmobility  acceleration  ETV
vector 223  FranciscoScenario.node[19].veinsmobility  co2emission  ETV
vector 230  FranciscoScenario.node[20].veinsmobility  posx  ETV
vector 231  FranciscoScenario.node[20].veinsmobility  posy  ETV
vector 225  FranciscoScenario.node[20].appl  beaconReceivedSignal:vector  ETV
attr description  "Beacon Message Received"
vector 226  FranciscoScenario.node[20].appl  messageReceivedSignal:vector  ETV
attr description  "Message Received"
vector 232  FranciscoScenario.node[20].veinsmobility  speed  ETV
vector 233  FranciscoScenario.node[20].veinsmobility  acceleration  ETV
vector 234  FranciscoScenario.node[20].veinsmobility  co2emission  ETV
vector 241  FranciscoScenario.node[21].veinsmobility  posx  ETV
vector 242  FranciscoScenario.node[21].veinsmobility  posy  ETV
vector 236  FranciscoScenario.node[21].appl  beaconReceivedSignal:vector  ETV
attr description  "Beacon Message Received"
vector 237  FranciscoScenario.node[21].appl  messageReceivedSignal:vector  ETV
attr description  "Message Received"
vector 243  FranciscoScenario.node[21].veinsmobility  speed  ETV
vector 244  FranciscoScenario.node[21].veinsmobility  acceleration  ETV
vector 245  FranciscoScenario.node[21].veinsmobility  co2emission  ETV
vector 252  FranciscoScenario.node[22].veinsmobility  posx  ETV
vector 253  FranciscoScenario.node[22].veinsmobility  posy  ETV
vector 247  FranciscoScenario.node[22].appl  beaconReceivedSignal:vector  ETV
attr description  "Beacon Message Received"
vector 248  FranciscoScenario.node[22].appl  messageReceivedSignal:vector  ETV
attr description  "Message Received"
vector 254  FranciscoScenario.node[22].veinsmobility  speed  ETV
vector 255  FranciscoScenario.node[22].veinsmobility  acceleration  ETV
vector 256  FranciscoScenario.node[22].veinsmobility  co2emission  ETV
vector 263  FranciscoScenario.node[23].veinsmobility  posx  ETV
vector 264  FranciscoScenario.node[23].veinsmobility  posy  ETV
vector 258  FranciscoScenario.node[23].appl  beaconReceivedSignal:vector  ETV
attr description  "Beacon Message Received"
vector 259  FranciscoScenario.node[23].appl  messageReceivedSignal:vector  ETV
attr description  "Message Received"
vector 265  FranciscoScenario.node[23].veinsmobility  speed  ETV
vector 266  FranciscoScenario.node[23].veinsmobility  acceleration  ETV
vector 267  FranciscoScenario.node[23].veinsmobility  co2emission  ETV
vector 274  FranciscoScenario.node[24].veinsmobility  posx  ETV
vector 275  FranciscoScenario.node[24].veinsmobility  posy  ETV
vector 269  FranciscoScenario.node[24].appl  beaconReceivedSignal:vector  ETV
attr description  "Beacon Message Received"
vector 270  FranciscoScenario.node[24].appl  messageReceivedSignal:vector  ETV
attr description  "Message Received"
vector 276  FranciscoScenario.node[24].veinsmobility  speed  ETV
vector 277  FranciscoScenario.node[24].veinsmobility  acceleration  ETV
vector 278  FranciscoScenario.node[24].veinsmobility  co2emission  ETV
vector 285  FranciscoScenario.node[25].veinsmobility  posx  ETV
vector 286  FranciscoScenario.node[25].veinsmobility  posy  ETV
vector 280  FranciscoScenario.node[25].appl  beaconReceivedSignal:vector  ETV
attr description  "Beacon Message Received"
vector 281  FranciscoScenario.node[25].appl  messageReceivedSignal:vector  ETV
attr description  "Message Received"
vector 287  FranciscoScenario.node[25].veinsmobility  speed  ETV
vector 288  FranciscoScenario.node[25].veinsmobility  acceleration  ETV
vector 289  FranciscoScenario.node[25].veinsmobility  co2emission  ETV
vector 296  FranciscoScenario.node[26].veinsmobility  posx  ETV
vector 297  FranciscoScenario.node[26].veinsmobility  posy  ETV
vector 291  FranciscoScenario.node[26].appl  beaconReceivedSignal:vector  ETV
attr description  "Beacon Message Received"
vector 292  FranciscoScenario.node[26].appl  messageReceivedSignal:vector  ETV
attr description  "Message Received"
vector 298  FranciscoScenario.node[26].veinsmobility  speed  ETV
vector 299  FranciscoScenario.node[26].veinsmobility  acceleration  ETV
vector 300  FranciscoScenario.node[26].veinsmobility  co2emission  ETV
vector 307  FranciscoScenario.node[27].veinsmobility  posx  ETV
vector 308  FranciscoScenario.node[27].veinsmobility  posy  ETV
vector 302  FranciscoScenario.node[27].appl  beaconReceivedSignal:vector  ETV
attr description  "Beacon Message Received"
vector 303  FranciscoScenario.node[27].appl  messageReceivedSignal:vector  ETV
attr description  "Message Received"
vector 309  FranciscoScenario.node[27].veinsmobility  speed  ETV
vector 310  FranciscoScenario.node[27].veinsmobility  acceleration  ETV
vector 311  FranciscoScenario.node[27].veinsmobility  co2emission  ETV
vector 318  FranciscoScenario.node[28].veinsmobility  posx  ETV
vector 319  FranciscoScenario.node[28].veinsmobility  posy  ETV
vector 313  FranciscoScenario.node[28].appl  beaconReceivedSignal:vector  ETV
attr description  "Beacon Message Received"
vector 314  FranciscoScenario.node[28].appl  messageReceivedSignal:vector  ETV
attr description  "Message Received"
vector 320  FranciscoScenario.node[28].veinsmobility  speed  ETV
vector 321  FranciscoScenario.node[28].veinsmobility  acceleration  ETV
vector 322  FranciscoScenario.node[28].veinsmobility  co2emission  ETV
vector 329  FranciscoScenario.node[29].veinsmobility  posx  ETV
vector 330  FranciscoScenario.node[29].veinsmobility  posy  ETV
vector 324  FranciscoScenario.node[29].appl  beaconReceivedSignal:vector  ETV
attr description  "Beacon Message Received"
vector 325  FranciscoScenario.node[29].appl  messageReceivedSignal:vector  ETV
attr description  "Message Received"
vector 331  FranciscoScenario.node[29].veinsmobility  speed  ETV
vector 332  FranciscoScenario.node[29].veinsmobility  acceleration  ETV
vector 333  FranciscoScenario.node[29].veinsmobility  co2emission  ETV
vector 15  FranciscoScenario.node[1].appl  warningReceivedSignal:vector  ETV
attr description  "Warning Message Received"
vector 2  FranciscoScenario.stats  allWarningsReceivedSignal:vector  ETV
attr description  "All Warnings Received"
vector 18  FranciscoScenario.node[1].appl  newWarningReceivedSignal:vector  ETV
attr description  "New Warning Message Received"
vector 1  FranciscoScenario.stats  allNewWarningsReceivedSignal:vector  ETV
attr description  "All New Warnings Received"
vector 26  FranciscoScenario.node[2].appl  warningReceivedSignal:vector  ETV
attr description  "Warning Message Received"
vector 29  FranciscoScenario.node[2].appl  newWarningReceivedSignal:vector  ETV
attr description  "New Warning Message Received"
vector 37  FranciscoScenario.node[3].appl  warningReceivedSignal:vector  ETV
attr description  "Warning Message Received"
vector 40  FranciscoScenario.node[3].appl  newWarningReceivedSignal:vector  ETV
attr description  "New Warning Message Received"
vector 48  FranciscoScenario.node[4].appl  warningReceivedSignal:vector  ETV
attr description  "Warning Message Received"
vector 51  FranciscoScenario.node[4].appl  newWarningReceivedSignal:vector  ETV
attr description  "New Warning Message Received"
vector 59  FranciscoScenario.node[5].appl  warningReceivedSignal:vector  ETV
attr description  "Warning Message Received"
vector 62  FranciscoScenario.node[5].appl  newWarningReceivedSignal:vector  ETV
attr description  "New Warning Message Received"
vector 70  FranciscoScenario.node[6].appl  warningReceivedSignal:vector  ETV
attr description  "Warning Message Received"
vector 73  FranciscoScenario.node[6].appl  newWarningReceivedSignal:vector  ETV
attr description  "New Warning Message Received"
vector 81  FranciscoScenario.node[7].appl  warningReceivedSignal:vector  ETV
attr description  "Warning Message Received"
vector 84  FranciscoScenario.node[7].appl  newWarningReceivedSignal:vector  ETV
attr description  "New Warning Message Received"
vector 92  FranciscoScenario.node[8].appl  warningReceivedSignal:vector  ETV
attr description  "Warning Message Received"
vector 95  FranciscoScenario.node[8].appl  newWarningReceivedSignal:vector  ETV
attr description  "New Warning Message Received"
vector 103  FranciscoScenario.node[9].appl  warningReceivedSignal:vector  ETV
attr description  "Warning Message Received"
vector 106  FranciscoScenario.node[9].appl  newWarningReceivedSignal:vector  ETV
attr description  "New Warning Message Received"
vector 114  FranciscoScenario.node[10].appl  warningReceivedSignal:vector  ETV
attr description  "Warning Message Received"
vector 117  FranciscoScenario.node[10].appl  newWarningReceivedSignal:vector  ETV
attr description  "New Warning Message Received"
vector 125  FranciscoScenario.node[11].appl  warningReceivedSignal:vector  ETV
attr description  "Warning Message Received"
vector 128  FranciscoScenario.node[11].appl  newWarningReceivedSignal:vector  ETV
attr description  "New Warning Message Received"
vector 136  FranciscoScenario.node[12].appl  warningReceivedSignal:vector  ETV
attr description  "Warning Message Received"
vector 139  FranciscoScenario.node[12].appl  newWarningReceivedSignal:vector  ETV
attr description  "New Warning Message Received"
vector 147  FranciscoScenario.node[13].appl  warningReceivedSignal:vector  ETV
attr description  "Warning Message Received"
vector 150  FranciscoScenario.node[13].appl  newWarningReceivedSignal:vector  ETV
attr description  "New Warning Message Received"
vector 158  FranciscoScenario.node[14].appl  warningReceivedSignal:vector  ETV
attr description  "Warning Message Received"
vector 161  FranciscoScenario.node[14].appl  newWarningReceivedSignal:vector  ETV
attr description  "New Warning Message Received"
vector 169  FranciscoScenario.node[15].appl  warningReceivedSignal:vector  ETV
attr description  "Warning Message Received"
vector 172  FranciscoScenario.node[15].appl  newWarningReceivedSignal:vector  ETV
attr description  "New Warning Message Received"
vector 180  FranciscoScenario.node[16].appl  warningReceivedSignal:vector  ETV
attr description  "Warning Message Received"
vector 183  FranciscoScenario.node[16].appl  newWarningReceivedSignal:vector  ETV
attr description  "New Warning Message Received"
vector 191  FranciscoScenario.node[17].appl  warningReceivedSignal:vector  ETV
attr description  "Warning Message Received"
vector 194  FranciscoScenario.node[17].appl  newWarningReceivedSignal:vector  ETV
attr description  "New Warning Message Received"
vector 4  FranciscoScenario.node[0].appl  warningReceivedSignal:vector  ETV
attr description  "Warning Message Received"
vector 7  FranciscoScenario.node[0].appl  newWarningReceivedSignal:vector  ETV
attr description  "New Warning Message Received"
vector 202  FranciscoScenario.node[18].appl  warningReceivedSignal:vector  ETV
attr description  "Warning Message Received"
vector 205  FranciscoScenario.node[18].appl  newWarningReceivedSignal:vector  ETV
attr description  "New Warning Message Received"
vector 213  FranciscoScenario.node[19].appl  warningReceivedSignal:vector  ETV
attr description  "Warning Message Received"
vector 216  FranciscoScenario.node[19].appl  newWarningReceivedSignal:vector  ETV
attr description  "New Warning Message Received"
vector 224  FranciscoScenario.node[20].appl  warningReceivedSignal:vector  ETV
attr description  "Warning Message Received"
vector 227  FranciscoScenario.node[20].appl  newWarningReceivedSignal:vector  ETV
attr description  "New Warning Message Received"
vector 235  FranciscoScenario.node[21].appl  warningReceivedSignal:vector  ETV
attr description  "Warning Message Received"
vector 238  FranciscoScenario.node[21].appl  newWarningReceivedSignal:vector  ETV
attr description  "New Warning Message Received"
vector 246  FranciscoScenario.node[22].appl  warningReceivedSignal:vector  ETV
attr description  "Warning Message Received"
vector 249  FranciscoScenario.node[22].appl  newWarningReceivedSignal:vector  ETV
attr description  "New Warning Message Received"
vector 312  FranciscoScenario.node[28].appl  warningReceivedSignal:vector  ETV
attr description  "Warning Message Received"
vector 315  FranciscoScenario.node[28].appl  newWarningReceivedSignal:vector  ETV
attr description  "New Warning Message Received"
vector 340  FranciscoScenario.node[30].veinsmobility  posx  ETV
vector 341  FranciscoScenario.node[30].veinsmobility  posy  ETV
vector 335  FranciscoScenario.node[30].appl  beaconReceivedSignal:vector  ETV
attr description  "Beacon Message Received"
vector 336  FranciscoScenario.node[30].appl  messageReceivedSignal:vector  ETV
attr description  "Message Received"
vector 342  FranciscoScenario.node[30].veinsmobility  speed  ETV
vector 343  FranciscoScenario.node[30].veinsmobility  acceleration  ETV
vector 344  FranciscoScenario.node[30].veinsmobility  co2emission  ETV
vector 257  FranciscoScenario.node[23].appl  warningReceivedSignal:vector  ETV
attr description  "Warning Message Received"
vector 260  FranciscoScenario.node[23].appl  newWarningReceivedSignal:vector  ETV
attr description  "New Warning Message Received"
vector 268  FranciscoScenario.node[24].appl  warningReceivedSignal:vector  ETV
attr description  "Warning Message Received"
vector 271  FranciscoScenario.node[24].appl  newWarningReceivedSignal:vector  ETV
attr description  "New Warning Message Received"
vector 279  FranciscoScenario.node[25].appl  warningReceivedSignal:vector  ETV
attr description  "Warning Message Received"
vector 282  FranciscoScenario.node[25].appl  newWarningReceivedSignal:vector  ETV
attr description  "New Warning Message Received"
vector 290  FranciscoScenario.node[26].appl  warningReceivedSignal:vector  ETV
attr description  "Warning Message Received"
vector 293  FranciscoScenario.node[26].appl  newWarningReceivedSignal:vector  ETV
attr description  "New Warning Message Received"
vector 301  FranciscoScenario.node[27].appl  warningReceivedSignal:vector  ETV
attr description  "Warning Message Received"
vector 304  FranciscoScenario.node[27].appl  newWarningReceivedSignal:vector  ETV
attr description  "New Warning Message Received"
vector 323  FranciscoScenario.node[29].appl  warningReceivedSignal:vector  ETV
attr description  "Warning Message Received"
vector 326  FranciscoScenario.node[29].appl  newWarningReceivedSignal:vector  ETV
attr description  "New Warning Message Received"
vector 334  FranciscoScenario.node[30].appl  warningReceivedSignal:vector  ETV
attr description  "Warning Message Received"
vector 337  FranciscoScenario.node[30].appl  newWarningReceivedSignal:vector  ETV
attr description  "New Warning Message Received"
vector 351  FranciscoScenario.node[31].veinsmobility  posx  ETV
vector 352  FranciscoScenario.node[31].veinsmobility  posy  ETV
vector 346  FranciscoScenario.node[31].appl  beaconReceivedSignal:vector  ETV
attr description  "Beacon Message Received"
vector 347  FranciscoScenario.node[31].appl  messageReceivedSignal:vector  ETV
attr description  "Message Received"
vector 353  FranciscoScenario.node[31].veinsmobility  speed  ETV
vector 354  FranciscoScenario.node[31].veinsmobility  acceleration  ETV
vector 355  FranciscoScenario.node[31].veinsmobility  co2emission  ETV
vector 362  FranciscoScenario.node[32].veinsmobility  posx  ETV
vector 363  FranciscoScenario.node[32].veinsmobility  posy  ETV
vector 357  FranciscoScenario.node[32].appl  beaconReceivedSignal:vector  ETV
attr description  "Beacon Message Received"
vector 358  FranciscoScenario.node[32].appl  messageReceivedSignal:vector  ETV
attr description  "Message Received"
vector 364  FranciscoScenario.node[32].veinsmobility  speed  ETV
vector 365  FranciscoScenario.node[32].veinsmobility  acceleration  ETV
vector 366  FranciscoScenario.node[32].veinsmobility  co2emission  ETV
vector 373  FranciscoScenario.node[33].veinsmobility  posx  ETV
vector 374  FranciscoScenario.node[33].veinsmobility  posy  ETV
vector 368  FranciscoScenario.node[33].appl  beaconReceivedSignal:vector  ETV
attr description  "Beacon Message Received"
vector 369  FranciscoScenario.node[33].appl  messageReceivedSignal:vector  ETV
attr description  "Message Received"
vector 375  FranciscoScenario.node[33].veinsmobility  speed  ETV
vector 376  FranciscoScenario.node[33].veinsmobility  acceleration  ETV
vector 377  FranciscoScenario.node[33].veinsmobility  co2emission  ETV
vector 384  FranciscoScenario.node[34].veinsmobility  posx  ETV
vector 385  FranciscoScenario.node[34].veinsmobility  posy  ETV
vector 379  FranciscoScenario.node[34].appl  beaconReceivedSignal:vector  ETV
attr description  "Beacon Message Received"
vector 380  FranciscoScenario.node[34].appl  messageReceivedSignal:vector  ETV
attr description  "Message Received"
vector 386  FranciscoScenario.node[34].veinsmobility  speed  ETV
vector 387  FranciscoScenario.node[34].veinsmobility  acceleration  ETV
vector 388  FranciscoScenario.node[34].veinsmobility  co2emission  ETV
vector 395  FranciscoScenario.node[35].veinsmobility  posx  ETV
vector 396  FranciscoScenario.node[35].veinsmobility  posy  ETV
vector 390  FranciscoScenario.node[35].appl  beaconReceivedSignal:vector  ETV
attr description  "Beacon Message Received"
vector 391  FranciscoScenario.node[35].appl  messageReceivedSignal:vector  ETV
attr description  "Message Received"
vector 397  FranciscoScenario.node[35].veinsmobility  speed  ETV
vector 398  FranciscoScenario.node[35].veinsmobility  acceleration  ETV
vector 399  FranciscoScenario.node[35].veinsmobility  co2emission  ETV
vector 406  FranciscoScenario.node[36].veinsmobility  posx  ETV
vector 407  FranciscoScenario.node[36].veinsmobility  posy  ETV
vector 401  FranciscoScenario.node[36].appl  beaconReceivedSignal:vector  ETV
attr description  "Beacon Message Received"
vector 402  FranciscoScenario.node[36].appl  messageReceivedSignal:vector  ETV
attr description  "Message Received"
vector 408  FranciscoScenario.node[36].veinsmobility  speed  ETV
vector 409  FranciscoScenario.node[36].veinsmobility  acceleration  ETV
vector 410  FranciscoScenario.node[36].veinsmobility  co2emission  ETV
7	29819 27 144323 144323 89.807905962726 89.807905962726 1 1 1 1 1