file 1863643 1412984007                                         
version 2
run Flooding-0-20141011-01:32:56-4131
attr configname Flooding
attr datetime 20141011-01:32:56
attr experiment Flooding
attr inifile omnetpp.ini
attr iterationvars ""
attr iterationvars2 $repetition=0
attr measurement ""
attr network org.car2x.veins.nodes.FranciscoScenario
attr processid 4131
attr repetition 0
attr replication #0
attr resultdir results
attr runnumber 0
attr seedset 0

vector 10  FranciscoScenario.node[0].veinsmobility  posx  ETV
vector 11  FranciscoScenario.node[0].veinsmobility  posy  ETV
vector 12  FranciscoScenario.node[0].veinsmobility  speed  ETV
vector 13  FranciscoScenario.node[0].veinsmobility  acceleration  ETV
vector 14  FranciscoScenario.node[0].veinsmobility  co2emission  ETV
vector 21  FranciscoScenario.node[1].veinsmobility  posx  ETV
vector 22  FranciscoScenario.node[1].veinsmobility  posy  ETV
vector 23  FranciscoScenario.node[1].veinsmobility  speed  ETV
vector 24  FranciscoScenario.node[1].veinsmobility  acceleration  ETV
vector 25  FranciscoScenario.node[1].veinsmobility  co2emission  ETV
vector 32  FranciscoScenario.node[2].veinsmobility  posx  ETV
vector 33  FranciscoScenario.node[2].veinsmobility  posy  ETV
vector 34  FranciscoScenario.node[2].veinsmobility  speed  ETV
vector 35  FranciscoScenario.node[2].veinsmobility  acceleration  ETV
vector 36  FranciscoScenario.node[2].veinsmobility  co2emission  ETV
vector 43  FranciscoScenario.node[3].veinsmobility  posx  ETV
vector 44  FranciscoScenario.node[3].veinsmobility  posy  ETV
vector 45  FranciscoScenario.node[3].veinsmobility  speed  ETV
vector 46  FranciscoScenario.node[3].veinsmobility  acceleration  ETV
vector 47  FranciscoScenario.node[3].veinsmobility  co2emission  ETV
vector 54  FranciscoScenario.node[4].veinsmobility  posx  ETV
vector 55  FranciscoScenario.node[4].veinsmobility  posy  ETV
vector 56  FranciscoScenario.node[4].veinsmobility  speed  ETV
vector 57  FranciscoScenario.node[4].veinsmobility  acceleration  ETV
vector 58  FranciscoScenario.node[4].veinsmobility  co2emission  ETV
vector 65  FranciscoScenario.node[5].veinsmobility  posx  ETV
vector 66  FranciscoScenario.node[5].veinsmobility  posy  ETV
vector 67  FranciscoScenario.node[5].veinsmobility  speed  ETV
vector 68  FranciscoScenario.node[5].veinsmobility  acceleration  ETV
vector 69  FranciscoScenario.node[5].veinsmobility  co2emission  ETV
vector 76  FranciscoScenario.node[6].veinsmobility  posx  ETV
vector 77  FranciscoScenario.node[6].veinsmobility  posy  ETV
vector 78  FranciscoScenario.node[6].veinsmobility  speed  ETV
vector 79  FranciscoScenario.node[6].veinsmobility  acceleration  ETV
vector 80  FranciscoScenario.node[6].veinsmobility  co2emission  ETV
vector 87  FranciscoScenario.node[7].veinsmobility  posx  ETV
vector 88  FranciscoScenario.node[7].veinsmobility  posy  ETV
vector 89  FranciscoScenario.node[7].veinsmobility  speed  ETV
vector 90  FranciscoScenario.node[7].veinsmobility  acceleration  ETV
vector 91  FranciscoScenario.node[7].veinsmobility  co2emission  ETV
vector 98  FranciscoScenario.node[8].veinsmobility  posx  ETV
vector 99  FranciscoScenario.node[8].veinsmobility  posy  ETV
vector 100  FranciscoScenario.node[8].veinsmobility  speed  ETV
vector 101  FranciscoScenario.node[8].veinsmobility  acceleration  ETV
vector 102  FranciscoScenario.node[8].veinsmobility  co2emission  ETV
vector 109  FranciscoScenario.node[9].veinsmobility  posx  ETV
vector 110  FranciscoScenario.node[9].veinsmobility  posy  ETV
vector 111  FranciscoScenario.node[9].veinsmobility  speed  ETV
vector 112  FranciscoScenario.node[9].veinsmobility  acceleration  ETV
vector 113  FranciscoScenario.node[9].veinsmobility  co2emission  ETV
vector 120  FranciscoScenario.node[10].veinsmobility  posx  ETV
vector 121  FranciscoScenario.node[10].veinsmobility  posy  ETV
vector 122  FranciscoScenario.node[10].veinsmobility  speed  ETV
vector 123  FranciscoScenario.node[10].veinsmobility  acceleration  ETV
vector 124  FranciscoScenario.node[10].veinsmobility  co2emission  ETV
vector 131  FranciscoScenario.node[11].veinsmobility  posx  ETV
vector 132  FranciscoScenario.node[11].veinsmobility  posy  ETV
vector 133  FranciscoScenario.node[11].veinsmobility  speed  ETV
vector 134  FranciscoScenario.node[11].veinsmobility  acceleration  ETV
vector 135  FranciscoScenario.node[11].veinsmobility  co2emission  ETV
vector 142  FranciscoScenario.node[12].veinsmobility  posx  ETV
vector 143  FranciscoScenario.node[12].veinsmobility  posy  ETV
vector 144  FranciscoScenario.node[12].veinsmobility  speed  ETV
vector 145  FranciscoScenario.node[12].veinsmobility  acceleration  ETV
vector 146  FranciscoScenario.node[12].veinsmobility  co2emission  ETV
vector 153  FranciscoScenario.node[13].veinsmobility  posx  ETV
vector 154  FranciscoScenario.node[13].veinsmobility  posy  ETV
vector 155  FranciscoScenario.node[13].veinsmobility  speed  ETV
vector 156  FranciscoScenario.node[13].veinsmobility  acceleration  ETV
vector 157  FranciscoScenario.node[13].veinsmobility  co2emission  ETV
vector 164  FranciscoScenario.node[14].veinsmobility  posx  ETV
vector 165  FranciscoScenario.node[14].veinsmobility  posy  ETV
vector 166  FranciscoScenario.node[14].veinsmobility  speed  ETV
vector 167  FranciscoScenario.node[14].veinsmobility  acceleration  ETV
vector 168  FranciscoScenario.node[14].veinsmobility  co2emission  ETV
vector 175  FranciscoScenario.node[15].veinsmobility  posx  ETV
vector 176  FranciscoScenario.node[15].veinsmobility  posy  ETV
vector 177  FranciscoScenario.node[15].veinsmobility  speed  ETV
vector 178  FranciscoScenario.node[15].veinsmobility  acceleration  ETV
vector 179  FranciscoScenario.node[15].veinsmobility  co2emission  ETV
vector 186  FranciscoScenario.node[16].veinsmobility  posx  ETV
vector 187  FranciscoScenario.node[16].veinsmobility  posy  ETV
vector 188  FranciscoScenario.node[16].veinsmobility  speed  ETV
vector 189  FranciscoScenario.node[16].veinsmobility  acceleration  ETV
vector 190  FranciscoScenario.node[16].veinsmobility  co2emission  ETV
vector 197  FranciscoScenario.node[17].veinsmobility  posx  ETV
vector 198  FranciscoScenario.node[17].veinsmobility  posy  ETV
vector 199  FranciscoScenario.node[17].veinsmobility  speed  ETV
vector 200  FranciscoScenario.node[17].veinsmobility  acceleration  ETV
vector 201  FranciscoScenario.node[17].veinsmobility  co2emission  ETV
vector 208  FranciscoScenario.node[18].veinsmobility  posx  ETV
vector 209  FranciscoScenario.node[18].veinsmobility  posy  ETV
vector 210  FranciscoScenario.node[18].veinsmobility  speed  ETV
vector 211  FranciscoScenario.node[18].veinsmobility  acceleration  ETV
vector 212  FranciscoScenario.node[18].veinsmobility  co2emission  ETV
vector 219  FranciscoScenario.node[19].veinsmobility  posx  ETV
vector 220  FranciscoScenario.node[19].veinsmobility  posy  ETV
vector 221  FranciscoScenario.node[19].veinsmobility  speed  ETV
vector 222  FranciscoScenario.node[19].veinsmobility  acceleration  ETV
vector 223  FranciscoScenario.node[19].veinsmobility  co2emission  ETV
vector 230  FranciscoScenario.node[20].veinsmobility  posx  ETV
vector 231  FranciscoScenario.node[20].veinsmobility  posy  ETV
vector 232  FranciscoScenario.node[20].veinsmobility  speed  ETV
vector 233  FranciscoScenario.node[20].veinsmobility  acceleration  ETV
vector 234  FranciscoScenario.node[20].veinsmobility  co2emission  ETV
vector 241  FranciscoScenario.node[21].veinsmobility  posx  ETV
vector 242  FranciscoScenario.node[21].veinsmobility  posy  ETV
vector 243  FranciscoScenario.node[21].veinsmobility  speed  ETV
vector 244  FranciscoScenario.node[21].veinsmobility  acceleration  ETV
vector 245  FranciscoScenario.node[21].veinsmobility  co2emission  ETV
vector 252  FranciscoScenario.node[22].veinsmobility  posx  ETV
vector 253  FranciscoScenario.node[22].veinsmobility  posy  ETV
vector 254  FranciscoScenario.node[22].veinsmobility  speed  ETV
vector 255  FranciscoScenario.node[22].veinsmobility  acceleration  ETV
vector 256  FranciscoScenario.node[22].veinsmobility  co2emission  ETV
vector 263  FranciscoScenario.node[23].veinsmobility  posx  ETV
vector 264  FranciscoScenario.node[23].veinsmobility  posy  ETV
vector 265  FranciscoScenario.node[23].veinsmobility  speed  ETV
vector 266  FranciscoScenario.node[23].veinsmobility  acceleration  ETV
vector 267  FranciscoScenario.node[23].veinsmobility  co2emission  ETV
vector 274  FranciscoScenario.node[24].veinsmobility  posx  ETV
vector 275  FranciscoScenario.node[24].veinsmobility  posy  ETV
vector 276  FranciscoScenario.node[24].veinsmobility  speed  ETV
vector 277  FranciscoScenario.node[24].veinsmobility  acceleration  ETV
vector 278  FranciscoScenario.node[24].veinsmobility  co2emission  ETV
vector 285  FranciscoScenario.node[25].veinsmobility  posx  ETV
vector 286  FranciscoScenario.node[25].veinsmobility  posy  ETV
vector 287  FranciscoScenario.node[25].veinsmobility  speed  ETV
vector 288  FranciscoScenario.node[25].veinsmobility  acceleration  ETV
vector 289  FranciscoScenario.node[25].veinsmobility  co2emission  ETV
vector 296  FranciscoScenario.node[26].veinsmobility  posx  ETV
vector 297  FranciscoScenario.node[26].veinsmobility  posy  ETV
vector 298  FranciscoScenario.node[26].veinsmobility  speed  ETV
vector 299  FranciscoScenario.node[26].veinsmobility  acceleration  ETV
vector 300  FranciscoScenario.node[26].veinsmobility  co2emission  ETV
vector 307  FranciscoScenario.node[27].veinsmobility  posx  ETV
vector 308  FranciscoScenario.node[27].veinsmobility  posy  ETV
vector 309  FranciscoScenario.node[27].veinsmobility  speed  ETV
vector 310  FranciscoScenario.node[27].veinsmobility  acceleration  ETV
vector 311  FranciscoScenario.node[27].veinsmobility  co2emission  ETV
vector 318  FranciscoScenario.node[28].veinsmobility  posx  ETV
vector 319  FranciscoScenario.node[28].veinsmobility  posy  ETV
vector 320  FranciscoScenario.node[28].veinsmobility  speed  ETV
vector 321  FranciscoScenario.node[28].veinsmobility  acceleration  ETV
vector 322  FranciscoScenario.node[28].veinsmobility  co2emission  ETV
vector 329  FranciscoScenario.node[29].veinsmobility  posx  ETV
vector 330  FranciscoScenario.node[29].veinsmobility  posy  ETV
vector 331  FranciscoScenario.node[29].veinsmobility  speed  ETV
vector 332  FranciscoScenario.node[29].veinsmobility  acceleration  ETV
vector 333  FranciscoScenario.node[29].veinsmobility  co2emission  ETV
vector 15  FranciscoScenario.node[1].appl  warningReceivedSignal:vector  ETV
attr description  "Warning Message Received"
vector 17  FranciscoScenario.node[1].appl  messageReceivedSignal:vector  ETV
attr description  "Message Received"
vector 2  FranciscoScenario.stats  allWarningsReceivedSignal:vector  ETV
attr description  "All Warnings Received"
vector 3  FranciscoScenario.stats  allMessagesReceivedSignal:vector  ETV
attr description  "All Messages Received"
vector 1  FranciscoScenario.stats  allNewWarningsReceivedSignal:vector  ETV
attr description  "All New Warnings Received"
vector 18  FranciscoScenario.node[1].appl  newWarningReceivedSignal:vector  ETV
attr description  "New Warning Message Received"
vector 26  FranciscoScenario.node[2].appl  warningReceivedSignal:vector  ETV
attr description  "Warning Message Received"
vector 28  FranciscoScenario.node[2].appl  messageReceivedSignal:vector  ETV
attr description  "Message Received"
vector 29  FranciscoScenario.node[2].appl  newWarningReceivedSignal:vector  ETV
attr description  "New Warning Message Received"
vector 37  FranciscoScenario.node[3].appl  warningReceivedSignal:vector  ETV
attr description  "Warning Message Received"
vector 39  FranciscoScenario.node[3].appl  messageReceivedSignal:vector  ETV
attr description  "Message Received"
vector 40  FranciscoScenario.node[3].appl  newWarningReceivedSignal:vector  ETV
attr description  "New Warning Message Received"
vector 48  FranciscoScenario.node[4].appl  warningReceivedSignal:vector  ETV
attr description  "Warning Message Received"
vector 50  FranciscoScenario.node[4].appl  messageReceivedSignal:vector  ETV
attr description  "Message Received"
vector 51  FranciscoScenario.node[4].appl  newWarningReceivedSignal:vector  ETV
attr description  "New Warning Message Received"
vector 59  FranciscoScenario.node[5].appl  warningReceivedSignal:vector  ETV
attr description  "Warning Message Received"
vector 61  FranciscoScenario.node[5].appl  messageReceivedSignal:vector  ETV
attr description  "Message Received"
vector 62  FranciscoScenario.node[5].appl  newWarningReceivedSignal:vector  ETV
attr description  "New Warning Message Received"
vector 70  FranciscoScenario.node[6].appl  warningReceivedSignal:vector  ETV
attr description  "Warning Message Received"
vector 72  FranciscoScenario.node[6].appl  messageReceivedSignal:vector  ETV
attr description  "Message Received"
vector 73  FranciscoScenario.node[6].appl  newWarningReceivedSignal:vector  ETV
attr description  "New Warning Message Received"
vector 81  FranciscoScenario.node[7].appl  warningReceivedSignal:vector  ETV
attr description  "Warning Message Received"
vector 83  FranciscoScenario.node[7].appl  messageReceivedSignal:vector  ETV
attr description  "Message Received"
vector 84  FranciscoScenario.node[7].appl  newWarningReceivedSignal:vector  ETV
attr description  "New Warning Message Received"
vector 92  FranciscoScenario.node[8].appl  warningReceivedSignal:vector  ETV
attr description  "Warning Message Received"
vector 94  FranciscoScenario.node[8].appl  messageReceivedSignal:vector  ETV
attr description  "Message Received"
vector 95  FranciscoScenario.node[8].appl  newWarningReceivedSignal:vector  ETV
attr description  "New Warning Message Received"
vector 103  FranciscoScenario.node[9].appl  warningReceivedSignal:vector  ETV
attr description  "Warning Message Received"
vector 105  FranciscoScenario.node[9].appl  messageReceivedSignal:vector  ETV
attr description  "Message Received"
vector 106  FranciscoScenario.node[9].appl  newWarningReceivedSignal:vector  ETV
attr description  "New Warning Message Received"
vector 114  FranciscoScenario.node[10].appl  warningReceivedSignal:vector  ETV
attr description  "Warning Message Received"
vector 116  FranciscoScenario.node[10].appl  messageReceivedSignal:vector  ETV
attr description  "Message Received"
vector 117  FranciscoScenario.node[10].appl  newWarningReceivedSignal:vector  ETV
attr description  "New Warning Message Received"
vector 125  FranciscoScenario.node[11].appl  warningReceivedSignal:vector  ETV
attr description  "Warning Message Received"
vector 127  FranciscoScenario.node[11].appl  messageReceivedSignal:vector  ETV
attr description  "Message Received"
vector 128  FranciscoScenario.node[11].appl  newWarningReceivedSignal:vector  ETV
attr description  "New Warning Message Received"
vector 136  FranciscoScenario.node[12].appl  warningReceivedSignal:vector  ETV
attr description  "Warning Message Received"
vector 138  FranciscoScenario.node[12].appl  messageReceivedSignal:vector  ETV
attr description  "Message Received"
vector 139  FranciscoScenario.node[12].appl  newWarningReceivedSignal:vector  ETV
attr description  "New Warning Message Received"
vector 4  FranciscoScenario.node[0].appl  warningReceivedSignal:vector  ETV
attr description  "Warning Message Received"
vector 6  FranciscoScenario.node[0].appl  messageReceivedSignal:vector  ETV
attr description  "Message Received"
vector 7  FranciscoScenario.node[0].appl  newWarningReceivedSignal:vector  ETV
attr description  "New Warning Message Received"
vector 147  FranciscoScenario.node[13].appl  warningReceivedSignal:vector  ETV
attr description  "Warning Message Received"
vector 149  FranciscoScenario.node[13].appl  messageReceivedSignal:vector  ETV
attr description  "Message Received"
vector 150  FranciscoScenario.node[13].appl  newWarningReceivedSignal:vector  ETV
attr description  "New Warning Message Received"
vector 158  FranciscoScenario.node[14].appl  warningReceivedSignal:vector  ETV
attr description  "Warning Message Received"
vector 160  FranciscoScenario.node[14].appl  messageReceivedSignal:vector  ETV
attr description  "Message Received"
vector 161  FranciscoScenario.node[14].appl  newWarningReceivedSignal:vector  ETV
attr description  "New Warning Message Received"
vector 169  FranciscoScenario.node[15].appl  warningReceivedSignal:vector  ETV
attr description  "Warning Message Received"
vector 171  FranciscoScenario.node[15].appl  messageReceivedSignal:vector  ETV
attr description  "Message Received"
vector 172  FranciscoScenario.node[15].appl  newWarningReceivedSignal:vector  ETV
attr description  "New Warning Message Received"
vector 180  FranciscoScenario.node[16].appl  warningReceivedSignal:vector  ETV
attr description  "Warning Message Received"
vector 182  FranciscoScenario.node[16].appl  messageReceivedSignal:vector  ETV
attr description  "Message Received"
vector 183  FranciscoScenario.node[16].appl  newWarningReceivedSignal:vector  ETV
attr description  "New Warning Message Received"
vector 191  FranciscoScenario.node[17].appl  warningReceivedSignal:vector  ETV
attr description  "Warning Message Received"
vector 193  FranciscoScenario.node[17].appl  messageReceivedSignal:vector  ETV
attr description  "Message Received"
vector 194  FranciscoScenario.node[17].appl  newWarningReceivedSignal:vector  ETV
attr description  "New Warning Message Received"
vector 202  FranciscoScenario.node[18].appl  warningReceivedSignal:vector  ETV
attr description  "Warning Message Received"
vector 204  FranciscoScenario.node[18].appl  messageReceivedSignal:vector  ETV
attr description  "Message Received"
vector 205  FranciscoScenario.node[18].appl  newWarningReceivedSignal:vector  ETV
attr description  "New Warning Message Received"
vector 213  FranciscoScenario.node[19].appl  warningReceivedSignal:vector  ETV
attr description  "Warning Message Received"
vector 215  FranciscoScenario.node[19].appl  messageReceivedSignal:vector  ETV
attr description  "Message Received"
vector 216  FranciscoScenario.node[19].appl  newWarningReceivedSignal:vector  ETV
attr description  "New Warning Message Received"
vector 224  FranciscoScenario.node[20].appl  warningReceivedSignal:vector  ETV
attr description  "Warning Message Received"
vector 226  FranciscoScenario.node[20].appl  messageReceivedSignal:vector  ETV
attr description  "Message Received"
vector 227  FranciscoScenario.node[20].appl  newWarningReceivedSignal:vector  ETV
attr description  "New Warning Message Received"
vector 235  FranciscoScenario.node[21].appl  warningReceivedSignal:vector  ETV
attr description  "Warning Message Received"
vector 237  FranciscoScenario.node[21].appl  messageReceivedSignal:vector  ETV
attr description  "Message Received"
vector 238  FranciscoScenario.node[21].appl  newWarningReceivedSignal:vector  ETV
attr description  "New Warning Message Received"
vector 246  FranciscoScenario.node[22].appl  warningReceivedSignal:vector  ETV
attr description  "Warning Message Received"
vector 248  FranciscoScenario.node[22].appl  messageReceivedSignal:vector  ETV
attr description  "Message Received"
vector 249  FranciscoScenario.node[22].appl  newWarningReceivedSignal:vector  ETV
attr description  "New Warning Message Received"
vector 312  FranciscoScenario.node[28].appl  warningReceivedSignal:vector  ETV
attr description  "Warning Message Received"
vector 314  FranciscoScenario.node[28].appl  messageReceivedSignal:vector  ETV
attr description  "Message Received"
vector 315  FranciscoScenario.node[28].appl  newWarningReceivedSignal:vector  ETV
attr description  "New Warning Message Received"
vector 323  FranciscoScenario.node[29].appl  warningReceivedSignal:vector  ETV
attr description  "Warning Message Received"
vector 325  FranciscoScenario.node[29].appl  messageReceivedSignal:vector  ETV
attr description  "Message Received"
vector 326  FranciscoScenario.node[29].appl  newWarningReceivedSignal:vector  ETV
attr description  "New Warning Message Received"
vector 257  FranciscoScenario.node[23].appl  warningReceivedSignal:vector  ETV
attr description  "Warning Message Received"
vector 259  FranciscoScenario.node[23].appl  messageReceivedSignal:vector  ETV
attr description  "Message Received"
vector 260  FranciscoScenario.node[23].appl  newWarningReceivedSignal:vector  ETV
attr description  "New Warning Message Received"
vector 268  FranciscoScenario.node[24].appl  warningReceivedSignal:vector  ETV
attr description  "Warning Message Received"
vector 270  FranciscoScenario.node[24].appl  messageReceivedSignal:vector  ETV
attr description  "Message Received"
vector 271  FranciscoScenario.node[24].appl  newWarningReceivedSignal:vector  ETV
attr description  "New Warning Message Received"
vector 279  FranciscoScenario.node[25].appl  warningReceivedSignal:vector  ETV
attr description  "Warning Message Received"
vector 281  FranciscoScenario.node[25].appl  messageReceivedSignal:vector  ETV
attr description  "Message Received"
vector 282  FranciscoScenario.node[25].appl  newWarningReceivedSignal:vector  ETV
attr description  "New Warning Message Received"
vector 290  FranciscoScenario.node[26].appl  warningReceivedSignal:vector  ETV
attr description  "Warning Message Received"
vector 292  FranciscoScenario.node[26].appl  messageReceivedSignal:vector  ETV
attr description  "Message Received"
vector 293  FranciscoScenario.node[26].appl  newWarningReceivedSignal:vector  ETV
attr description  "New Warning Message Received"
7	21437 25 1046 1046 87.803506067754 87.803506067754 1 1 1 1 1
6	21462 100 1046 1522 87.803506067754 87.804162581736 4 1 1 4 4
4	21562 100 1046 1522 87.803506067754 87.804162581736 4 1 1 4 4
14	21662 20563 4 880 0.3 87.8 876 0.973 9.82520242459 2341.1755719666 9844.7124427997
13	42225 22997 4 880 0.3 87.8 876 -4.5 2.6 -2.5286542447005 2125.4513313097
12	65222 22721 3 880 0.2 87.8 877 0 13.999359213558 9234.9468532494 118874.93478867
11	87943 24103 2 880 0.1 87.8 878 1578.0861504339 2120.9582023723 1667186.9179832 3200272344.7527
10	112046 24104 2 880 0.1 87.8 878 2159.6759992043 2450.6572874393 2066226.7478233 4871534143.5847
18	136150 25 930 930 87.803093016697 87.803093016697 1 1 1 1 1
17	136175 129 930 1518 87.803093016697 87.804162566604 5 1 1 5 5
15	136304 129 930 1518 87.803093016697 87.804162566604 5 1 1 5 5
25	136433 20246 34 880 3.3 87.8 846 0.973 10.170358483607 2271.5253559078 9559.7649380995
24	156679 24106 34 880 3.3 87.8 846 -4.0142019116481 2.6 -2.4600052302109 1786.9495595234
23	180785 23406 33 880 3.2 87.8 847 0.0055732425836783 13.999952244477 9184.8854228281 116430.02724165
22	204191 23338 32 880 3.1 87.8 848 1578.0861504339 2120.9517534953 1602289.6775736 3061092791.976
21	227529 23345 32 880 3.1 87.8 848 2163.9905985236 2450.6343626493 2003188.3853551 4739443826.9955
117	250874 26 966 966 87.803093894426 87.803093894426 1 1 1 1 1
116	250900 106 966 1330 87.803093894426 87.80390468731 4 1 1 4 4
114	251006 106 966 1330 87.803093894426 87.80390468731 4 1 1 4 4
124	251112 14719 304 880 30.3 87.8 576 0.973 10.546108580738 1753.9177145607 8208.2517868462
123	265831 16925 304 880 30.3 87.8 576 -3.7182945791565 2.6 136.91499958445 1338.5167407651
122	282756 16571 303 880 30.2 87.8 577 0.24884161073063 13.999751117721 6496.441876856 80565.876528137
121	299327 16594 302 880 30.1 87.8 578 1578.0861504339 2113.2001868337 1031831.0129802 1856406477.4035
120	315921 16574 302 880 30.1 87.8 578 2333.8377907473 2450.6251043571 1394251.9869472 3364076639.3917
128	332495 26 970 970 87.803093932522 87.803093932522 1 1 1 1 1
127	332521 134 970 1462 87.803093932522 87.804161818104 5 1 1 5 5
125	332655 134 970 1462 87.803093932522 87.804161818104 5 1 1 5 5
135	332789 13831 334 880 33.3 87.8 546 0.973 10.333872249218 1704.5710590561 8048.3889547858
134	346620 15972 334 880 33.3 87.8 546 -3.740928080686 2.6 137.2119298607 1325.1031973584
133	362592 15701 333 880 33.2 87.8 547 0.25701562327403 13.999894360469 6085.3594538035 74777.246772619
132	378293 15733 332 880 33.1 87.8 548 1578.0861504339 2075.4034896055 969135.60739807 1725311245.6001
131	394026 15737 332 880 33.1 87.8 548 2333.8307360749 2450.6390405594 1321134.7159124 3185875741.468
139	409763 26 974 974 87.803093960999 87.803093960999 1 1 1 1 1
138	409789 134 974 1904 87.803093960999 87.804638901163 5 1 1 5 5
136	409923 134 974 1904 87.803093960999 87.804638901163 5 1 1 5 5
146	410057 13187 364 880 36.3 87.8 516 0.973 10.37755868605 1622.1736810703 7770.2503611939
145	423244 15093 364 880 36.3 87.8 516 -3.8790363866729 2.6 136.71351383477 1329.5437965091
144	438337 14826 363 880 36.2 87.8 517 0.2536784628951 13.999813819695 5634.2074460375 68418.636477003
143	453163 14858 362 880 36.1 87.8 518 1578.0861504339 2030.4189697523 906568.93437751 1595245712.7366
142	468021 14871 362 880 36.1 87.8 518 2333.8415437603 2450.6179950734 1247918.7031904 3007185668.1798
150	482892 27 1162 1162 87.803712106907 87.803712106907 1 1 1 1 1
149	482919 108 1162 1895 87.803712106907 87.804638764558 4 1 1 4 4
147	483027 108 1162 1895 87.803712106907 87.804638764558 4 1 1 4 4
157	483135 12377 394 880 39.3 87.8 486 0.973 9.9790424377356 1541.6607502928 7512.8179408303
156	495512 14188 394 880 39.3 87.8 486 -4.0445987554966 2.6 136.68036087733 1304.314869053
155	509700 13968 393 880 39.2 87.8 487 0.2563861307737 13.999745033977 5223.1977338774 62670.06288692
154	523668 14004 392 880 39.1 87.8 488 1578.0861504339 1989.4490579451 846429.66148524 1474614624.383
153	537672 13997 392 880 39.1 87.8 488 2333.8329266364 2450.6492582313 1174552.3044567 2827770450.3893
161	551669 27 1170 1170 87.803712241367 87.803712241367 1 1 1 1 1
160	551696 107 1170 1879 87.803712241367 87.804638630897 4 1 1 4 4
158	551803 107 1170 1879 87.803712241367 87.804638630897 4 1 1 4 4
168	551910 11624 424 880 42.3 87.8 456 0.973 10.534724065816 1469.3045132807 7304.1110994184
167	563534 13282 424 880 42.3 87.8 456 -3.8312677695771 2.6 136.2992579875 1296.4040008948
166	576816 13117 423 880 42.2 87.8 457 0.25037681508181 13.99935512166 4820.0980156835 57001.272603066
165	589933 13144 422 880 42.1 87.8 458 1578.0861504339 1949.2719617542 787736.77131172 1359636610.6629
164	603077 13147 422 880 42.1 87.8 458 2333.8362671294 2450.6597882462 1101219.1793803 2648502892.0233
172	616224 27 1182 1182 87.803712377126 87.803712377126 1 1 1 1 1
171	616251 108 1182 1867 87.803712377126 87.804638495238 4 1 1 4 4
169	616359 108 1182 1867 87.803712377126 87.804638495238 4 1 1 4 4
179	616467 10849 454 880 45.3 87.8 426 0.973 10.109833579188 1396.4587918934 7011.0574352256
178	627316 12377 454 880 45.3 87.8 426 -3.7639299421297 2.6 137.03462592697 1286.2176281498
177	639693 12259 453 880 45.2 87.8 427 0.24741334290849 13.998877243379 4411.2741318554 51435.697349658
176	651952 12287 452 880 45.1 87.8 428 1578.0861504339 1908.501629821 729957.38213912 1248337371.8464
175	664239 12289 452 880 45.1 87.8 428 2333.8439057248 2449.2101446451 1027665.6745685 2468176394.2914
183	676528 27 1194 1194 87.803712514128 87.803712514128 1 1 1 1 1
182	676555 108 1194 1863 87.803712514128 87.804638357373 4 1 1 4 4
180	676663 108 1194 1863 87.803712514128 87.804638357373 4 1 1 4 4
190	676771 10073 484 880 48.3 87.8 396 0.973 10.081962655 1344.7943311177 6871.6030664376
189	686844 11472 484 880 48.3 87.8 396 -4.0203230410952 2.6 137.32288291865 1286.1492314009
188	698316 11401 483 880 48.2 87.8 397 0.25467185314931 13.998610752821 3997.9706092748 45755.628885821
187	709717 11416 482 880 48.1 87.8 398 1578.0861504339 1867.2762305075 673236.53555685 1141146461.3247
186	721133 11414 482 880 48.1 87.8 398 2333.8324139827 2446.2123637123 954354.39757285 2289008413.3059
194	732547 27 1202 1202 87.803712657196 87.803712657196 1 1 1 1 1
193	732574 81 1202 1526 87.803712657196 87.804162650295 3 1 1 3 3
191	732655 81 1202 1526 87.803712657196 87.804162650295 3 1 1 3 3
201	732736 9314 514 880 51.3 87.8 366 0.973 10.689267777763 1262.763119018 6635.840471107
200	742050 10561 514 880 51.3 87.8 366 -4.156493000676 2.6 136.61091489871 1285.5043000536
199	752611 10535 513 880 51.2 87.8 367 0.25575374198146 13.999465401182 3567.4746772462 39769.179775101
198	763146 10556 512 880 51.1 87.8 368 1578.0861504339 1824.3466977607 617621.46952496 1038095312.6456
197	773702 10571 512 880 51.1 87.8 368 2333.8284822215 2443.0906635743 880904.42414894 2109191123.0043
205	784273 26 1210 1210 87.80371279996 87.80371279996 1 1 1 1 1
204	784299 107 1210 1859 87.80371279996 87.804638356885 4 1 1 4 4
202	784406 107 1210 1859 87.80371279996 87.804638356885 4 1 1 4 4
212	784513 8513 544 880 54.3 87.8 336 0.973 10.077537204732 1197.5702267291 6495.4546094439
211	793026 9644 544 880 54.3 87.8 336 -3.9367937148457 2.6 136.19059916208 1287.8324604236
210	802670 9675 543 880 54.2 87.8 337 0.25452556009637 13.984178454417 3138.4424949287 33717.946756069
209	812345 9693 542 880 54.1 87.8 338 1578.0861504339 1781.560477077 563466.44060026 940327793.15377
208	822038 9694 542 880 54.1 87.8 338 2333.8395586326 2439.9793846373 807619.02723165 1930169951.8626
216	831732 27 1234 1234 87.803712939267 87.803712939267 1 1 1 1 1
215	831759 108 1234 1871 87.803712939267 87.804638496576 4 1 1 4 4
213	831867 108 1234 1871 87.803712939267 87.804638496576 4 1 1 4 4
223	831975 7735 574 880 57.3 87.8 306 0.973 10.02915900071 1124.9006322411 6207.3506694339
222	839710 8730 574 880 57.3 87.8 306 -3.865916332736 2.6 136.9177225696 1242.3427461224
221	848440 8813 573 880 57.2 87.8 307 0.25546776798018 13.94724002494 2719.4448676143 27789.876672834
220	857253 8832 572 880 57.1 87.8 308 1578.0861504339 1739.8553415434 510735.99546914 847616073.34046
219	866085 8835 572 880 57.1 87.8 308 2333.8318163478 2436.0835226042 734527.93500671 1752085271.1139
29	874920 25 934 934 87.803093033877 87.803093033877 1 1 1 1 1
28	874945 103 934 1514 87.803093033877 87.804162551095 4 1 1 4 4
26	875048 103 934 1514 87.803093033877 87.804162551095 4 1 1 4 4
36	875151 19497 64 880 6.3 87.8 816 0.973 10.552118324411 2214.2382368954 9434.1652961482