version 2
run Counter-0-20141020-23:59:00-6711
attr configname Counter
attr datetime 20141020-23:59:00
attr experiment Counter
attr inifile omnetpp.ini
attr iterationvars ""
attr iterationvars2 $repetition=0
attr measurement ""
attr network org.car2x.veins.nodes.FranciscoScenario
attr processid 6711
attr repetition 0
attr replication #0
attr resultdir results
attr runnumber 0
attr seedset 0

vector 10  FranciscoScenario.node[0].veinsmobility  posx  ETV
vector 11  FranciscoScenario.node[0].veinsmobility  posy  ETV
vector 12  FranciscoScenario.node[0].veinsmobility  speed  ETV
vector 13  FranciscoScenario.node[0].veinsmobility  acceleration  ETV
vector 14  FranciscoScenario.node[0].veinsmobility  co2emission  ETV
vector 21  FranciscoScenario.node[1].veinsmobility  posx  ETV
vector 22  FranciscoScenario.node[1].veinsmobility  posy  ETV
vector 23  FranciscoScenario.node[1].veinsmobility  speed  ETV
vector 24  FranciscoScenario.node[1].veinsmobility  acceleration  ETV
vector 25  FranciscoScenario.node[1].veinsmobility  co2emission  ETV
vector 32  FranciscoScenario.node[2].veinsmobility  posx  ETV
vector 33  FranciscoScenario.node[2].veinsmobility  posy  ETV
vector 34  FranciscoScenario.node[2].veinsmobility  speed  ETV
vector 35  FranciscoScenario.node[2].veinsmobility  acceleration  ETV
vector 36  FranciscoScenario.node[2].veinsmobility  co2emission  ETV
vector 43  FranciscoScenario.node[3].veinsmobility  posx  ETV
vector 44  FranciscoScenario.node[3].veinsmobility  posy  ETV
vector 45  FranciscoScenario.node[3].veinsmobility  speed  ETV
vector 46  FranciscoScenario.node[3].veinsmobility  acceleration  ETV
vector 47  FranciscoScenario.node[3].veinsmobility  co2emission  ETV
vector 54  FranciscoScenario.node[4].veinsmobility  posx  ETV
vector 55  FranciscoScenario.node[4].veinsmobility  posy  ETV
vector 56  FranciscoScenario.node[4].veinsmobility  speed  ETV
vector 57  FranciscoScenario.node[4].veinsmobility  acceleration  ETV
vector 58  FranciscoScenario.node[4].veinsmobility  co2emission  ETV
vector 65  FranciscoScenario.node[5].veinsmobility  posx  ETV
vector 66  FranciscoScenario.node[5].veinsmobility  posy  ETV
vector 67  FranciscoScenario.node[5].veinsmobility  speed  ETV
vector 68  FranciscoScenario.node[5].veinsmobility  acceleration  ETV
vector 69  FranciscoScenario.node[5].veinsmobility  co2emission  ETV
vector 76  FranciscoScenario.node[6].veinsmobility  posx  ETV
vector 77  FranciscoScenario.node[6].veinsmobility  posy  ETV
vector 78  FranciscoScenario.node[6].veinsmobility  speed  ETV
vector 79  FranciscoScenario.node[6].veinsmobility  acceleration  ETV
vector 80  FranciscoScenario.node[6].veinsmobility  co2emission  ETV
vector 87  FranciscoScenario.node[7].veinsmobility  posx  ETV
vector 88  FranciscoScenario.node[7].veinsmobility  posy  ETV
vector 89  FranciscoScenario.node[7].veinsmobility  speed  ETV
vector 90  FranciscoScenario.node[7].veinsmobility  acceleration  ETV
vector 91  FranciscoScenario.node[7].veinsmobility  co2emission  ETV
vector 98  FranciscoScenario.node[8].veinsmobility  posx  ETV
vector 99  FranciscoScenario.node[8].veinsmobility  posy  ETV
vector 100  FranciscoScenario.node[8].veinsmobility  speed  ETV
vector 101  FranciscoScenario.node[8].veinsmobility  acceleration  ETV
vector 102  FranciscoScenario.node[8].veinsmobility  co2emission  ETV
vector 109  FranciscoScenario.node[9].veinsmobility  posx  ETV
vector 110  FranciscoScenario.node[9].veinsmobility  posy  ETV
vector 111  FranciscoScenario.node[9].veinsmobility  speed  ETV
vector 112  FranciscoScenario.node[9].veinsmobility  acceleration  ETV
vector 113  FranciscoScenario.node[9].veinsmobility  co2emission  ETV
vector 15  FranciscoScenario.node[1].appl  warningReceivedSignal:vector  ETV
attr description  "Warning Message Received"
vector 17  FranciscoScenario.node[1].appl  messageReceivedSignal:vector  ETV
attr description  "Message Received"
vector 2  FranciscoScenario.stats  allWarningsReceivedSignal:vector  ETV
attr description  "All Warnings Received"
vector 3  FranciscoScenario.stats  allMessagesReceivedSignal:vector  ETV
attr description  "All Messages Received"
vector 1  FranciscoScenario.stats  allNewWarningsReceivedSignal:vector  ETV
attr description  "All New Warnings Received"
vector 18  FranciscoScenario.node[1].appl  newWarningReceivedSignal:vector  ETV
attr description  "New Warning Message Received"
vector 26  FranciscoScenario.node[2].appl  warningReceivedSignal:vector  ETV
attr description  "Warning Message Received"
vector 28  FranciscoScenario.node[2].appl  messageReceivedSignal:vector  ETV
attr description  "Message Received"
vector 29  FranciscoScenario.node[2].appl  newWarningReceivedSignal:vector  ETV
attr description  "New Warning Message Received"
vector 37  FranciscoScenario.node[3].appl  warningReceivedSignal:vector  ETV
attr description  "Warning Message Received"
vector 39  FranciscoScenario.node[3].appl  messageReceivedSignal:vector  ETV
attr description  "Message Received"
vector 40  FranciscoScenario.node[3].appl  newWarningReceivedSignal:vector  ETV
attr description  "New Warning Message Received"
vector 48  FranciscoScenario.node[4].appl  warningReceivedSignal:vector  ETV
attr description  "Warning Message Received"
vector 50  FranciscoScenario.node[4].appl  messageReceivedSignal:vector  ETV
attr description  "Message Received"
vector 51  FranciscoScenario.node[4].appl  newWarningReceivedSignal:vector  ETV
attr description  "New Warning Message Received"
vector 59  FranciscoScenario.node[5].appl  warningReceivedSignal:vector  ETV
attr description  "Warning Message Received"
vector 61  FranciscoScenario.node[5].appl  messageReceivedSignal:vector  ETV
attr description  "Message Received"
vector 62  FranciscoScenario.node[5].appl  newWarningReceivedSignal:vector  ETV
attr description  "New Warning Message Received"
vector 70  FranciscoScenario.node[6].appl  warningReceivedSignal:vector  ETV
attr description  "Warning Message Received"
vector 72  FranciscoScenario.node[6].appl  messageReceivedSignal:vector  ETV
attr description  "Message Received"
vector 73  FranciscoScenario.node[6].appl  newWarningReceivedSignal:vector  ETV
attr description  "New Warning Message Received"
vector 81  FranciscoScenario.node[7].appl  warningReceivedSignal:vector  ETV
attr description  "Warning Message Received"
vector 83  FranciscoScenario.node[7].appl  messageReceivedSignal:vector  ETV
attr description  "Message Received"
vector 84  FranciscoScenario.node[7].appl  newWarningReceivedSignal:vector  ETV
attr description  "New Warning Message Received"
vector 92  FranciscoScenario.node[8].appl  warningReceivedSignal:vector  ETV
attr description  "Warning Message Received"
vector 94  FranciscoScenario.node[8].appl  messageReceivedSignal:vector  ETV
attr description  "Message Received"
vector 95  FranciscoScenario.node[8].appl  newWarningReceivedSignal:vector  ETV
attr description  "New Warning Message Received"
vector 103  FranciscoScenario.node[9].appl  warningReceivedSignal:vector  ETV
attr description  "Warning Message Received"
vector 105  FranciscoScenario.node[9].appl  messageReceivedSignal:vector  ETV
attr description  "Message Received"
vector 106  FranciscoScenario.node[9].appl  newWarningReceivedSignal:vector  ETV
attr description  "New Warning Message Received"
vector 4  FranciscoScenario.node[0].appl  warningReceivedSignal:vector  ETV
attr description  "Warning Message Received"
vector 6  FranciscoScenario.node[0].appl  messageReceivedSignal:vector  ETV
attr description  "Message Received"
6	982	87.995581067705	1
6	1070	88.010749979608	1
4	982	87.995581067705	1
4	1070	88.010749979608	1
14	4	0.3	1.4276208928798
14	5	0.4	1.5553504369406
14	6	0.5	1.6547258140606
14	7	0.6	1.7983555805977
14	8	0.7	1.8323674505787
14	9	0.8	2.0110897446338
14	10	0.9	1.970451684244
14	11	1	2.244901373431
14	12	1.1	2.2119208452933
14	13	1.2	2.2548819012347
14	14	1.3	2.5345448660167
14	15	1.4	2.6013847819414
14	16	1.5	2.852151772081
14	17	1.6	2.3526342216865
14	18	1.7	3.339605186172
14	19	1.8	2.4276646371033
14	20	1.9	3.3234379637286
14	21	2	3.3108190720898
14	22	2.1	3.2988402737822
14	23	2.2	2.9578171889378
14	24	2.3	2.9959376211745
14	25	2.4	3.4908200907348
14	26	2.5	3.6670806850063
14	27	2.6	3.6268696198063
14	28	2.7	4.0205201967415
14	29	2.8	3.1988957479633
14	30	2.9	3.4137976506977
14	31	3	4.907912272511
14	32	3.1	4.5496391886597
14	33	3.2	5.1843707050129
14	34	3.3	5.490502883119
14	35	3.4	3.8970556575359
14	36	3.5	4.0812734992789
14	37	3.6	3.9458891055838
14	38	3.7	3.7593760917064
14	39	3.8	4.2273339749307
14	40	3.9	5.1045553963918
14	41	4	4.4294934204996
14	42	4.1	6.1704815888201
14	43	4.2	4.9722185416067
14	44	4.3	6.3796667209292
14	45	4.4	4.3550328563445
14	46	4.5	5.5724689565354
14	47	4.6	5.9783016536976
14	48	4.7	6.531517038645
14	49	4.8	5.1600288586713
14	50	4.9	6.1886912441601
14	51	5	5.9549957283831
14	52	5.1	7.7853608744789
14	53	5.2	6.0293065596097
14	54	5.3	6.1389862136434
14	55	5.4	6.215380184048
14	56	5.5	5.2080809029875
14	57	5.6	6.1561018361202
14	58	5.7	7.3629412347938
14	59	5.8	7.2141082079045
14	60	5.9	6.3899916329279
14	61	6	8.8173762262081
14	62	6.1	6.712915009577
14	63	6.2	6.7856909201694
14	64	6.3	8.0773156423548
14	65	6.4	8.3743676988308
14	66	6.5	8.4713421478856
14	67	6.6	8.1436375074094
14	68	6.7	6.1246890190291
14	69	6.8	9.3014481119437
14	70	6.9	6.1272339967354
14	71	7	9.3496226877566
14	72	7.1	8.5304672898817
14	73	7.2	9.1242607840614
14	74	7.3	0.973
14	75	7.4	4.3577761273913
14	76	7.5	0.973
14	77	7.6	2.5720389208699
14	78	7.7	2.8766605061585
14	79	7.8	4.3165487169568
14	80	7.9	0.973
14	81	8	1.5897409358382
14	82	8.1	4.2992840120413
14	83	8.2	3.8192287130312
14	84	8.3	0.973
14	85	8.4	4.9896392768023
14	86	8.5	0.973
14	87	8.6	3.2116257252267
14	88	8.7	2.8822162993739
14	89	8.8	0.973
14	90	8.9	2.2705069044256
14	91	9	3.8308782287708
14	92	9.1	2.0735985700595
14	93	9.2	0.973
14	94	9.3	2.8376475775941
14	95	9.4	1.3397800903168
14	96	9.5	0.973
14	97	9.6	0.973
14	98	9.7	2.6721583083952
14	99	9.8	1.7699536569376
14	100	9.9	4.1362624045135
14	101	10	0.973
14	102	10.1	0.973
14	103	10.2	0.973
14	104	10.3	0.973
14	105	10.4	0.973
14	106	10.5	0.973
14	107	10.6	0.973
14	108	10.7	0.973
14	109	10.8	0.973
14	110	10.9	0.973
14	111	11	0.973
14	112	11.1	0.973
14	113	11.2	0.973
14	114	11.3	0.973
14	115	11.4	0.973
14	116	11.5	0.973
14	117	11.6	0.973
14	118	11.7	0.973
14	119	11.8	0.973
14	120	11.9	0.973
14	121	12	0.973
14	122	12.1	0.973
14	123	12.2	0.973
14	124	12.3	0.973
14	125	12.4	0.973
14	126	12.5	0.973
14	127	12.6	0.973
14	128	12.7	0.973
14	129	12.8	0.973
14	130	12.9	0.973
14	131	13	0.973
14	132	13.1	0.973
14	133	13.2	0.973
14	134	13.3	0.973
14	135	13.4	0.973
14	136	13.5	0.973
14	137	13.6	3.5735574093087
14	138	13.7	3.7500424838715
14	139	13.8	3.9266738352852
14	140	13.9	4.1034612054572
14	141	14	4.2804143362946
14	142	14.1	4.4575429697045
14	143	14.2	4.6348568475942
14	144	14.3	4.8123657118707
14	145	14.4	4.9900793044413
14	146	14.5	3.8570439909308
14	147	14.6	3.9658166612094
14	148	14.7	4.9321216693566
14	149	14.8	4.746637985347
14	150	14.9	4.5696051347275
14	151	15	5.2216510129458
14	152	15.1	4.4214073361883
14	153	15.2	4.2489042048499
14	154	15.3	5.4585271853975
14	155	15.4	4.6050085823935
14	156	15.5	4.8474587574368
14	157	15.6	4.5203652490089
14	158	15.7	5.9819080005712
14	159	15.8	5.6131830759796
14	160	15.9	6.5511640891088
14	161	16	7.0908903175858
14	162	16.1	6.7157379063457
14	163	16.2	7.3807846395105
14	164	16.3	5.6087545858803
14	165	16.4	7.7880890112275
14	166	16.5	5.7357624026778
14	167	16.6	6.2165560631356
14	168	16.7	7.5164231263597
14	169	16.8	6.7326702205247
14	170	16.9	6.0964562366966
14	171	17	7.981273887304
14	172	17.1	5.7457965389222
14	173	17.2	6.202061885998
14	174	17.3	7.5371876127656
14	175	17.4	7.6928493572579
14	176	17.5	7.7960277624751
14	177	17.6	6.4398105311437
14	178	17.7	8.0365249061328
14	179	17.8	6.0681766278845
14	180	17.9	6.9306994043177
14	181	18	9.3762185666796
14	182	18.1	7.3527644615935
14	183	18.2	6.7810181465907
14	184	18.3	9.82520242459
14	185	18.4	8.568514074897
14	186	18.5	9.4567343017326
14	187	18.6	3.772814371066
14	188	18.7	0.973
14	189	18.8	5.3680948288379
14	190	18.9	0.973
14	191	19	1.9796426442958
14	192	19.1	0.973
14	193	19.2	3.7649097958479
14	194	19.3	3.2342043860393
14	195	19.4	2.5370470023251
14	196	19.5	0.973
14	197	19.6	0.973
14	198	19.7	2.7858082982705
14	199	19.8	1.8806459786383
14	200	19.9	4.1892888634077
14	201	20	0.973
14	202	20.1	3.3273489879395
14	203	20.2	0.973
14	204	20.3	2.8083311032441
14	205	20.4	0.973
14	206	20.5	3.8701196018204
14	207	20.6	3.9055126662748
14	208	20.7	2.2167231120935
14	209	20.8	2.1267615853112
14	210	20.9	1.8745016987642
14	211	21	0.973
14	212	21.1	0.973
14	213	21.2	0.973
14	214	21.3	0.973
14	215	21.4	0.973
14	216	21.5	0.973
14	217	21.6	0.973
14	218	21.7	0.973
14	219	21.8	0.973
14	220	21.9	0.973
14	221	22	0.973
14	222	22.1	0.973
14	223	22.2	0.973
14	224	22.3	0.973
14	225	22.4	0.973
14	226	22.5	0.973
14	227	22.6	0.973
14	228	22.7	0.973
14	229	22.8	0.973
14	230	22.9	0.973
14	231	23	0.973
14	232	23.1	0.973
14	233	23.2	0.973
14	234	23.3	0.973
14	235	23.4	0.973
14	236	23.5	0.973
14	237	23.6	0.973
14	238	23.7	0.973
14	239	23.8	0.973
14	240	23.9	0.973
14	241	24	0.973
14	242	24.1	0.973
14	243	24.2	0.973
14	244	24.3	0.973
14	245	24.4	0.973
14	246	24.5	0.973
14	247	24.6	3.6240893109914
14	248	24.7	3.8006152845237
14	249	24.8	3.9772903250419
14	250	24.9	4.1541241744533
14	251	25	4.3311265746651
14	252	25.1	4.5083072675844
14	253	25.2	4.6856759951183
14	254	25.3	4.8632424991741
14	255	25.4	5.0410165216589
14	256	25.5	3.8859149192882
14	257	25.6	4.8522949201943
14	258	25.7	4.5889825125131
14	259	25.8	4.3613735727495
14	260	25.9	4.7665186718711
14	261	26	3.8863474238154
14	262	26.1	4.2288138443319
14	263	26.2	4.0547633818732
14	264	26.3	4.7855603242303
14	265	26.4	5.3447560740367
14	266	26.5	4.2105475839239
14	267	26.6	5.9521117542016
14	268	26.7	5.4794975640117
14	269	26.8	4.5562149503915
14	270	26.9	6.8150424461882
14	271	27	6.0671182779949
14	272	27.1	4.9167537301483
14	273	27.2	6.2074298318165
14	274	27.3	7.2191883226358
14	275	27.4	7.4029662412396
14	276	27.5	6.2315306477114
14	277	27.6	5.3135756322439
14	278	27.7	7.4083525223848
14	279	27.8	5.4366569957971
14	280	27.9	7.8819571607796
14	281	28	5.8637898573298
14	282	28.1	7.300168473967
14	283	28.2	7.1956609415836
14	284	28.3	8.2428881276577
14	285	28.4	8.2730115017943
14	286	28.5	8.6600607501145
14	287	28.6	6.3742753388212
14	288	28.7	6.7595762358298
14	289	28.8	7.4215966634988
14	290	28.9	6.7221375290765
14	291	29	7.1594565533866
14	292	29.1	7.0981869224596
14	293	29.2	6.6705148011106
14	294	29.3	7.2322677423476
14	295	29.4	8.6806146629715
14	296	29.5	7.2213268246598
14	297	29.6	9.704010775064
14	298	29.7	5.2051598044382
14	299	29.8	2.2527785912388
14	300	29.9	3.8779324726601
14	301	30	0.973
14	302	30.1	4.0563165424524
14	303	30.2	2.505875978062
14	304	30.3	0.973
14	305	30.4	1.155538443863
14	306	30.5	2.9444803449378
14	307	30.6	2.8590685783921
14	308	30.7	3.4552870629608
14	309	30.8	0.973
14	310	30.9	0.973
14	311	31	2.505251101571
14	312	31.1	2.8014918841965
14	313	31.2	3.2243215613963
14	314	31.3	0.973
14	315	31.4	3.4401496693507
14	316	31.5	3.2552898379999
14	317	31.6	0.973
14	318	31.7	5.07351532229
14	319	31.8	2.1698483020003
14	320	31.9	0.973
14	321	32	1.0893705041916
14	322	32.1	3.4720969871612
14	323	32.2	3.6831121434239
14	324	32.3	0.973
14	325	32.4	3.3989268800187
14	326	32.5	0.973
14	327	32.6	1.7520830188421
14	328	32.7	2.4373165970083
14	329	32.8	2.4532404815799
14	330	32.9	0.973
14	331	33	1.9181623942493
14	332	33.1	4.2725986257973
14	333	33.2	0.973
14	334	33.3	0.973
14	335	33.4	2.6864952698571
14	336	33.5	2.1787911958564
14	337	33.6	2.2901116082418
14	338	33.7	4.8143188622697
14	339	33.8	0.973
14	340	33.9	6.1288936679731
14	341	34	0.973
14	342	34.1	1.9194912905418
14	343	34.2	4.8829138064879
14	344	34.3	0.973
14	345	34.4	2.8767907112989
14	346	34.5	4.2378665459735
14	347	34.6	0.973
14	348	34.7	2.6611690307691
14	349	34.8	3.1906555539728
14	350	34.9	2.2364770980587
14	351	35	3.6100973007
14	352	35.1	0.973
14	353	35.2	2.7775965781103
14	354	35.3	0.973
14	355	35.4	5.3012291429588
14	356	35.5	0.973
14	357	35.6	3.2080246220981
14	358	35.7	1.1003893579283
14	359	35.8	3.5860343970973
14	360	35.9	3.3887583281903
14	361	36	1.8505747551739
14	362	36.1	2.4560077862077
14	363	36.2	1.9604808536055
14	364	36.3	0.973
14	365	36.4	4.1774092128867
14	366	36.5	2.3679044337265
14	367	36.6	0.973
14	368	36.7	3.682333838514
14	369	36.8	3.4752563116383
14	370	36.9	0.973
14	371	37	1.9972814020048
14	372	37.1	0.973
14	373	37.2	2.0400458139952
14	374	37.3	4.3915875013648
14	375	37.4	0.973
14	376	37.5	5.1921742710481
14	377	37.6	1.4084947322266
14	378	37.7	0.973
14	379	37.8	1.917651411947
14	380	37.9	4.4249358134081
14	381	38	2.2415526619786
14	382	38.1	0.973
14	383	38.2	0.973
14	384	38.3	2.7930180813399
14	385	38.4	3.5423379411262
14	386	38.5	0.973
14	387	38.6	3.6357066017879
14	388	38.7	0.973
14	389	38.8	3.1324731316448
14	390	38.9	3.061306189275
14	391	39	2.6501295034421
14	392	39.1	0.973
14	393	39.2	3.4713610800664
14	394	39.3	3.5209367070199
14	395	39.4	2.2629136152158
14	396	39.5	0.973
14	397	39.6	0.973
14	398	39.7	2.901720357115
14	399	39.8	1.6403601618898
14	400	39.9	5.1763024825208
14	401	40	0.973
14	402	40.1	3.9259278780294
14	403	40.2	2.4332946477914
14	404	40.3	0.973
14	405	40.4	3.2421246041464
14	406	40.5	0.973
14	407	40.6	4.3731260811754
14	408	40.7	0.973
14	409	40.8	2.2190259551756
14	410	40.9	2.9843421844818
14	411	41	0.973
14	412	41.1	5.355784056004
14	413	41.2	1.2341422737016
14	414	41.3	0.973
14	415	41.4	1.6045575953844
14	416	41.5	3.015585113953
14	417	41.6	0.973
14	418	41.7	5.4690103918951
14	419	41.8	2.8106378189594
14	420	41.9	0.973
14	421	42	0.973
14	422	42.1	5.8293756860346
14	423	42.2	0.973
14	424	42.3	3.5154646875511
14	425	42.4	3.8337265940341
14	426	42.5	1.6257679100028
14	427	42.6	0.973
14	428	42.7	5.0439054620044
14	429	42.8	1.0705845798857
14	430	42.9	0.973
14	431	43	2.4888558393018
14	432	43.1	4.788461370061
14	433	43.2	0.973
14	434	43.3	0.973
14	435	43.4	1.9344331608158
14	436	43.5	5.2080913715488
14	437	43.6	0.973
14	438	43.7	4.5782051519673
14	439	43.8	0.973
14	440	43.9	1.9714357039834
14	441	44	5.1440862870769
14	442	44.1	0.973
14	443	44.2	1.7834875757024
14	444	44.3	0.973
14	445	44.4	1.8918016069164
14	446	44.5	5.4015253832485
14	447	44.6	0.973
14	448	44.7	3.1024159984751
14	449	44.8	0.973
14	450	44.9	4.1369776034939
14	451	45	3.2073588362689
14	452	45.1	1.6466047625767
14	453	45.2	0.973
14	454	45.3	2.1160914764173
14	455	45.4	5.0465956350947
14	456	45.5	0.973
14	457	45.6	3.3406758352683
14	458	45.7	0.973
14	459	45.8	3.9879003014862
14	460	45.9	0.973
14	461	46	4.0078811018979
14	462	46.1	0.973
14	463	46.2	2.2917784113476
14	464	46.3	3.4564558913793
14	465	46.4	0.973
14	466	46.5	3.9245109189528
14	467	46.6	3.9750702506909
14	468	46.7	1.5129121000866
14	469	46.8	1.8484544127271
14	470	46.9	0.973
14	471	47	1.5974723377511
14	472	47.1	3.8457720691429
14	473	47.2	2.298369009562
14	474	47.3	0.973
14	475	47.4	3.3287707138257
14	476	47.5	4.1027902897701
14	477	47.6	1.8650759233567
14	478	47.7	0.973
14	479	47.8	3.5796733590878
14	480	47.9	2.3054031989935
14	481	48	2.4670760456649
14	482	48.1	0.973
14	483	48.2	3.397377238244
14	484	48.3	1.1043487556929
14	485	48.4	3.8499359820302
14	486	48.5	1.1693249240821
14	487	48.6	3.0426986083852
14	488	48.7	0.973
14	489	48.8	0.973
14	490	48.9	5.5094939528816
14	491	49	0.973
14	492	49.1	3.6590425048286
14	493	49.2	2.6845853496917
14	494	49.3	0.973
14	495	49.4	5.362849319113
14	496	49.5	2.7405911580823
14	497	49.6	0.973
14	498	49.7	3.8343581619444
14	499	49.8	1.5804976227267
14	500	49.9	0.973
14	501	50	1.8147404095072
14	502	50.1	4.3317109548251
14	503	50.2	3.2221079943705
14	504	50.3	1.651806932296
14	505	50.4	2.9314434410086
14	506	50.5	0.973
14	507	50.6	3.4252230064967
14	508	50.7	2.7741803522177
14	509	50.8	1.6840656603372
14	510	50.9	3.4417608987722
14	511	51	0.973
14	512	51.1	1.3590755827319
14	513	51.2	4.5098594231774
14	514	51.3	0.973
14	515	51.4	1.7193175460633
14	516	51.5	3.7712282366474
14	517	51.6	0.973
14	518	51.7	4.2856994117912
14	519	51.8	2.3417721315476
14	520	51.9	0.973
14	521	52	1.3782941433089
14	522	52.1	2.812500682184
14	523	52.2	2.1995750931004
14	524	52.3	4.6954848320597
14	525	52.4	0.973
14	526	52.5	2.5694760688814
14	527	52.6	3.2147164043794
14	528	52.7	0.973
14	529	52.8	1.8262561224161
14	530	52.9	1.141813237227
14	531	53	5.5965839599797
14	532	53.1	2.3704106341778
14	533	53.2	1.8695888141961
14	534	53.3	0.973
14	535	53.4	3.5437988054276
14	536	53.5	0.973
14	537	53.6	5.2178951373971
14	538	53.7	1.1250307274954
14	539	53.8	2.6354428020531
14	540	53.9	0.973
14	541	54	0.973
14	542	54.1	5.5921143171541
14	543	54.2	1.2383266726593
14	544	54.3	0.973
14	545	54.4	2.7111497473231
14	546	54.5	0.973
14	547	54.6	2.3424009855961
14	548	54.7	0.973
14	549	54.8	4.6786167442831
14	550	54.9	0.973
14	551	55	5.2526786867984
14	552	55.1	1.4459733765475
14	553	55.2	1.1731061227697
14	554	55.3	1.3170993522567
14	555	55.4	1.6695148323857
14	556	55.5	3.1671987515191
14	557	55.6	0.973
14	558	55.7	1.415026590847
14	559	55.8	4.7417173405732
14	560	55.9	0.973
14	561	56	3.9098818072125
14	562	56.1	0.973
14	563	56.2	4.4044200351175
14	564	56.3	2.6869639587358
14	565	56.4	1.5862014454
14	566	56.5	0.973
14	567	56.6	2.5662448029719
14	568	56.7	4.4690573339353
14	569	56.8	0.973
14	570	56.9	0.973
14	571	57	2.7642942410871
14	572	57.1	2.1677317362601
14	573	57.2	3.8686937488346
14	574	57.3	1.2628835775366
14	575	57.4	0.973
14	576	57.5	2.103328823029
14	577	57.6	2.2635071569274
14	578	57.7	2.9368548034945
14	579	57.8	2.6458480174215
14	580	57.9	0.973
14	581	58	2.5897152152537
14	582	58.1	1.2846130672649
14	583	58.2	2.2512977035595
14	584	58.3	3.8600370943889
14	585	58.4	2.1582039230982
14	586	58.5	0.973
14	587	58.6	4.2068384536167
14	588	58.7	1.6936272399075
14	589	58.8	0.973
14	590	58.9	2.7459628923027
14	591	59	2.3917447057947
14	592	59.1	4.1732925551543
14	593	59.2	0.973
14	594	59.3	2.3607475188302
14	595	59.4	4.075017061649
14	596	59.5	2.6872874293674
14	597	59.6	2.2856667213022
14	598	59.7	1.8714695392807
14	599	59.8	0.973
14	600	59.9	5.6116651055763
14	601	60	1.1339610838164
14	602	60.1	0.973
14	603	60.2	3.1705094372565
14	604	60.3	0.973
14	605	60.4	2.452845552721
14	606	60.5	2.2645254216221
14	607	60.6	5.7114742641126
14	608	60.7	0.973
14	609	60.8	4.87888366777
14	610	60.9	0.973
14	611	61	2.9790738717052
14	612	61.1	1.8787251449917
14	613	61.2	0.973
14	614	61.3	2.610555939058
14	615	61.4	2.4582622421594
14	616	61.5	1.8136813687702
14	617	61.6	0.973
14	618	61.7	3.6403839448876
14	619	61.8	3.56879392672
14	620	61.9	0.973
14	621	62	0.973
14	622	62.1	3.9916216063723
14	623	62.2	0.973
14	624	62.3	4.8796900180429
14	625	62.4	0.973
14	626	62.5	1.7474397298217
14	627	62.6	3.5356070105542
14	628	62.7	2.2786569325562
14	629	62.8	1.0887613287467
14	630	62.9	5.3450795192104
14	631	63	0.973
14	632	63.1	2.7204101519551
14	633	63.2	3.2189603645616
14	634	63.3	0.973
14	635	63.4	2.3153364575149
14	636	63.5	0.973
14	637	63.6	5.3530496035956
14	638	63.7	0.973
14	639	63.8	4.2699613352833
14	640	63.9	0.973
14	641	64	3.747760753511
14	642	64.1	2.0648004154607
14	643	64.2	2.5575275914964
14	644	64.3	0.973
14	645	64.4	0.973
14	646	64.5	1.4217686202749
14	647	64.6	5.7957546335905
14	648	64.7	0.973
14	649	64.8	3.7039225163469
14	650	64.9	2.7156207583235
14	651	65	2.2707991774827
14	652	65.1	2.5691687463192
14	653	65.2	0.973
14	654	65.3	0.973
14	655	65.4	4.4034349731881
14	656	65.5	0.973
14	657	65.6	2.4896657662025
14	658	65.7	2.0743200498642
14	659	65.8	3.190207337402
14	660	65.9	2.810289073777
14	661	66	0.973
14	662	66.1	2.2661858957984
14	663	66.2	3.016950632907
14	664	66.3	2.66064576951
14	665	66.4	2.1993380921651
14	666	66.5	2.1199326776605
14	667	66.6	0.973
14	668	66.7	5.2295512308073
14	669	66.8	0.973
14	670	66.9	3.3997765822735
14	671	67	1.2843214611791
14	672	67.1	1.2385744157649
14	673	67.2	2.1634720551532
14	674	67.3	3.8814582196234
14	675	67.4	0.973
14	676	67.5	4.2544036878936
14	677	67.6	2.7962970142244
14	678	67.7	0.973
14	679	67.8	2.5190527759934
14	680	67.9	5.2391381868611
14	681	68	0.973
14	682	68.1	0.973
14	683	68.2	2.6885069245901
14	684	68.3	3.8872360848054
14	685	68.4	2.6424854482166
14	686	68.5	0.973
14	687	68.6	0.973
14	688	68.7	2.2276648880769
14	689	68.8	1.9850148523121
14	690	68.9	4.8614344964689
14	691	69	1.817660856488
14	692	69.1	2.5340989408792
14	693	69.2	1.8230545994785
14	694	69.3	0.973
14	695	69.4	1.1248474001378
14	696	69.5	3.8102980012334
14	697	69.6	0.973
14	698	69.7	2.6030376305235
14	699	69.8	0.973
14	700	69.9	3.168242101855
14	701	70	4.0981869244501
14	702	70.1	1.447028455588
14	703	70.2	3.4682939194346
14	704	70.3	0.973
14	705	70.4	3.7312205186051
14	706	70.5	0.973
14	707	70.6	3.8728838833124
14	708	70.7	1.7403341440803
14	709	70.8	0.973
14	710	70.9	4.8376273557399
14	711	71	0.973
14	712	71.1	4.7378030789088
14	713	71.2	2.7836683422248
14	714	71.3	0.973
14	715	71.4	1.8835020309833
14	716	71.5	1.905234461689
14	717	71.6	4.6454668558053
14	718	71.7	0.973
14	719	71.8	3.8763513566192
14	720	71.9	0.973
14	721	72	2.5755418596114
14	722	72.1	0.973
14	723	72.2	4.6739441238634
14	724	72.3	3.2468294369092
14	725	72.4	0.973
14	726	72.5	2.4347527131302
14	727	72.6	3.2348323123147
14	728	72.7	1.1955778090772
14	729	72.8	2.6796805120686
14	730	72.9	1.2858509274782
14	731	73	0.973
14	732	73.1	4.3943216204315
14	733	73.2	0.973
14	734	73.3	3.7903908163993
14	735	73.4	0.973
14	736	73.5	2.0974128166808
14	737	73.6	2.3819331476719
14	738	73.7	5.1369998115576
14	739	73.8	0.973
14	740	73.9	3.0527915513101
14	741	74	3.3935550526469
14	742	74.1	0.973
14	743	74.2	3.9277702948714
14	744	74.3	0.973
14	745	74.4	2.1759830919175
14	746	74.5	3.2078872259707
14	747	74.6	1.1032297847217
14	748	74.7	1.4261776102094
14	749	74.8	3.0038544651042
14	750	74.9	0.973
14	751	75	6.1503982738679
14	753	75.1	0.973
14	754	75.2	0.973
14	755	75.3	0.973
14	756	75.4	0.973
14	757	75.5	0.973
14	758	75.6	0.973
14	759	75.7	0.973
14	760	75.8	0.973
14	761	75.9	0.973
14	762	76	0.973
14	763	76.1	0.973
14	764	76.2	0.973
14	765	76.3	0.973
14	766	76.4	0.973
14	767	76.5	0.973
14	768	76.6	0.973
14	769	76.7	0.973
14	770	76.8	0.973
14	771	76.9	0.973
14	772	77	0.973
14	773	77.1	0.973
14	774	77.2	0.973
14	775	77.3	0.973
14	776	77.4	0.973
14	777	77.5	0.973
14	778	77.6	0.973
14	779	77.7	0.973
14	780	77.8	0.973
14	781	77.9	0.973
14	782	78	0.973
14	783	78.1	0.973
14	784	78.2	0.973
14	785	78.3	0.973
14	786	78.4	0.973
14	787	78.5	0.973
14	788	78.6	0.973
14	789	78.7	0.973
14	790	78.8	0.973
14	791	78.9	0.973
14	792	79	0.973
14	793	79.1	0.973
14	794	79.2	0.973
14	795	79.3	0.973
14	796	79.4	0.973
14	797	79.5	0.973
14	798	79.6	0.973
14	799	79.7	0.973
14	800	79.8	0.973
14	801	79.9	0.973
14	802	80	0.973
14	803	80.1	0.973
14	804	80.2	0.973
14	805	80.3	0.973
14	806	80.4	0.973
14	807	80.5	0.973
14	808	80.6	0.973
14	809	80.7	0.973
14	810	80.8	0.973
14	811	80.9	0.973
14	812	81	0.973
14	813	81.1	0.973
14	814	81.2	0.973
14	815	81.3	0.973
14	816	81.4	0.973
14	817	81.5	0.973
14	818	81.6	0.973
14	819	81.7	0.973
14	820	81.8	0.973
14	821	81.9	0.973
14	822	82	0.973
14	823	82.1	0.973
14	824	82.2	0.973
14	825	82.3	0.973
14	826	82.4	0.973
14	827	82.5	0.973
14	828	82.6	0.973
14	829	82.7	0.973
14	830	82.8	0.973
14	831	82.9	0.973
14	832	83	0.973
14	833	83.1	0.973
14	834	83.2	0.973
14	835	83.3	0.973
14	836	83.4	0.973
14	837	83.5	0.973
14	838	83.6	0.973
14	839	83.7	0.973
14	840	83.8	0.973
14	841	83.9	0.973
14	842	84	0.973
14	843	84.1	0.973
14	844	84.2	0.973
14	845	84.3	0.973
14	846	84.4	0.973
14	847	84.5	0.973
14	848	84.6	0.973
14	849	84.7	0.973
14	850	84.8	0.973
14	851	84.9	0.973
14	852	85	0.973
14	853	85.1	0.973
14	854	85.2	0.973
14	855	85.3	0.973
14	856	85.4	0.973
14	857	85.5	0.973
14	858	85.6	0.973
14	859	85.7	0.973
14	860	85.8	0.973
14	861	85.9	0.973
14	862	86	0.973
14	863	86.1	0.973
14	864	86.2	0.973
14	865	86.3	0.973
14	866	86.4	0.973
14	867	86.5	0.973
14	868	86.6	0.973
14	869	86.7	0.973
14	870	86.8	0.973
14	871	86.9	0.973
14	872	87	0.973
14	873	87.1	0.973
14	874	87.2	0.973
14	875	87.3	0.973
14	876	87.4	0.973
14	877	87.5	0.973
14	878	87.6	0.973
14	879	87.7	0.973
14	880	87.8	0.973
14	943	87.9	0.973
14	1007	88	0.973
14	1072	88.1	0.973
14	1076	88.2	0.973
14	1080	88.3	0.973
14	1081	88.4	0.973
14	1082	88.5	0.973
14	1083	88.6	0.973
14	1084	88.7	0.973
14	1085	88.8	0.973
14	1086	88.9	0.973
14	1087	89	0.973
14	1088	89.1	0.973
14	1089	89.2	0.973
14	1090	89.3	0.973
14	1091	89.4	0.973
14	1092	89.5	0.973
14	1093	89.6	0.973
14	1094	89.7	0.973
14	1095	89.8	0.973
14	1096	89.9	0.973
14	1097	90	0.973
14	1098	90.1	0.973
14	1099	90.2	0.973
14	1100	90.3	0.973
14	1101	90.4	0.973
14	1102	90.5	0.973
14	1103	90.6	0.973
14	1104	90.7	0.973
14	1105	90.8	0.973
14	1106	90.9	0.973
14	1107	91	0.973
14	1108	91.1	0.973
14	1109	91.2	0.973
14	1110	91.3	0.973
14	1111	91.4	0.973
14	1112	91.5	0.973
14	1113	91.6	0.973
14	1114	91.7	0.973
14	1115	91.8	0.973
14	1116	91.9	0.973
14	1117	92	0.973
14	1118	92.1	0.973
14	1119	92.2	0.973
14	1120	92.3	0.973
14	1121	92.4	0.973
14	1122	92.5	0.973
14	1123	92.6	0.973
14	1124	92.7	0.973
14	1125	92.8	0.973
14	1126	92.9	0.973
14	1127	93	0.973
14	1128	93.1	0.973
14	1129	93.2	0.973
14	1130	93.3	0.973
14	1131	93.4	0.973
14	1132	93.5	0.973
14	1133	93.6	0.973
14	1134	93.7	0.973
14	1135	93.8	0.973
14	1136	93.9	0.973
14	1137	94	0.973
14	1138	94.1	0.973
14	1139	94.2	0.973
14	1140	94.3	0.973
14	1141	94.4	0.973
14	1142	94.5	0.973
14	1143	94.6	0.973
14	1144	94.7	0.973
14	1145	94.8	0.973
14	1146	94.9	0.973
14	1147	95	0.973
14	1148	95.1	0.973
14	1149	95.2	0.973
14	1150	95.3	0.973
14	1151	95.4	0.973
14	1152	95.5	0.973
14	1153	95.6	0.973
14	1154	95.7	0.973
14	1155	95.8	0.973
14	1156	95.9	0.973
14	1157	96	0.973
14	1158	96.1	0.973
14	1159	96.2	0.973
14	1160	96.3	0.973
14	1161	96.4	0.973
14	1162	96.5	0.973
14	1163	96.6	0.973
14	1164	96.7	0.973
14	1165	96.8	0.973
14	1166	96.9	0.973
14	1167	97	0.973
14	1168	97.1	0.973
14	1169	97.2	0.973
14	1170	97.3	0.973
14	1171	97.4	0.973
14	1172	97.5	0.973
14	1173	97.6	0.973
14	1174	97.7	0.973
14	1175	97.8	0.973