version 2
run Counter-0-20141012-19:14:42-8834
attr configname Counter
attr datetime 20141012-19:14:42
attr experiment Counter
attr inifile omnetpp.ini
attr iterationvars ""
attr iterationvars2 $repetition=0
attr measurement ""
attr network org.car2x.veins.nodes.FranciscoScenario
attr processid 8834
attr repetition 0
attr replication #0
attr resultdir results
attr runnumber 0
attr seedset 0

vector 10  FranciscoScenario.node[0].veinsmobility  posx  ETV
vector 11  FranciscoScenario.node[0].veinsmobility  posy  ETV
vector 12  FranciscoScenario.node[0].veinsmobility  speed  ETV
vector 13  FranciscoScenario.node[0].veinsmobility  acceleration  ETV
vector 14  FranciscoScenario.node[0].veinsmobility  co2emission  ETV
vector 21  FranciscoScenario.node[1].veinsmobility  posx  ETV
vector 22  FranciscoScenario.node[1].veinsmobility  posy  ETV
vector 23  FranciscoScenario.node[1].veinsmobility  speed  ETV
vector 24  FranciscoScenario.node[1].veinsmobility  acceleration  ETV
vector 25  FranciscoScenario.node[1].veinsmobility  co2emission  ETV
vector 32  FranciscoScenario.node[2].veinsmobility  posx  ETV
vector 33  FranciscoScenario.node[2].veinsmobility  posy  ETV
vector 34  FranciscoScenario.node[2].veinsmobility  speed  ETV
vector 35  FranciscoScenario.node[2].veinsmobility  acceleration  ETV
vector 36  FranciscoScenario.node[2].veinsmobility  co2emission  ETV
vector 43  FranciscoScenario.node[3].veinsmobility  posx  ETV
vector 44  FranciscoScenario.node[3].veinsmobility  posy  ETV
vector 45  FranciscoScenario.node[3].veinsmobility  speed  ETV
vector 46  FranciscoScenario.node[3].veinsmobility  acceleration  ETV
vector 47  FranciscoScenario.node[3].veinsmobility  co2emission  ETV
vector 54  FranciscoScenario.node[4].veinsmobility  posx  ETV
vector 55  FranciscoScenario.node[4].veinsmobility  posy  ETV
vector 56  FranciscoScenario.node[4].veinsmobility  speed  ETV
vector 57  FranciscoScenario.node[4].veinsmobility  acceleration  ETV
vector 58  FranciscoScenario.node[4].veinsmobility  co2emission  ETV
vector 65  FranciscoScenario.node[5].veinsmobility  posx  ETV
vector 66  FranciscoScenario.node[5].veinsmobility  posy  ETV
vector 67  FranciscoScenario.node[5].veinsmobility  speed  ETV
vector 68  FranciscoScenario.node[5].veinsmobility  acceleration  ETV
vector 69  FranciscoScenario.node[5].veinsmobility  co2emission  ETV
vector 76  FranciscoScenario.node[6].veinsmobility  posx  ETV
vector 77  FranciscoScenario.node[6].veinsmobility  posy  ETV
vector 78  FranciscoScenario.node[6].veinsmobility  speed  ETV
vector 79  FranciscoScenario.node[6].veinsmobility  acceleration  ETV
vector 80  FranciscoScenario.node[6].veinsmobility  co2emission  ETV
vector 87  FranciscoScenario.node[7].veinsmobility  posx  ETV
vector 88  FranciscoScenario.node[7].veinsmobility  posy  ETV
vector 89  FranciscoScenario.node[7].veinsmobility  speed  ETV
vector 90  FranciscoScenario.node[7].veinsmobility  acceleration  ETV
vector 91  FranciscoScenario.node[7].veinsmobility  co2emission  ETV
vector 98  FranciscoScenario.node[8].veinsmobility  posx  ETV
vector 99  FranciscoScenario.node[8].veinsmobility  posy  ETV
vector 100  FranciscoScenario.node[8].veinsmobility  speed  ETV
vector 101  FranciscoScenario.node[8].veinsmobility  acceleration  ETV
vector 102  FranciscoScenario.node[8].veinsmobility  co2emission  ETV
vector 109  FranciscoScenario.node[9].veinsmobility  posx  ETV
vector 110  FranciscoScenario.node[9].veinsmobility  posy  ETV
vector 111  FranciscoScenario.node[9].veinsmobility  speed  ETV
vector 112  FranciscoScenario.node[9].veinsmobility  acceleration  ETV
vector 113  FranciscoScenario.node[9].veinsmobility  co2emission  ETV
vector 120  FranciscoScenario.node[10].veinsmobility  posx  ETV
vector 121  FranciscoScenario.node[10].veinsmobility  posy  ETV
vector 122  FranciscoScenario.node[10].veinsmobility  speed  ETV
vector 123  FranciscoScenario.node[10].veinsmobility  acceleration  ETV
vector 124  FranciscoScenario.node[10].veinsmobility  co2emission  ETV
vector 131  FranciscoScenario.node[11].veinsmobility  posx  ETV
vector 132  FranciscoScenario.node[11].veinsmobility  posy  ETV
vector 133  FranciscoScenario.node[11].veinsmobility  speed  ETV
vector 134  FranciscoScenario.node[11].veinsmobility  acceleration  ETV
vector 135  FranciscoScenario.node[11].veinsmobility  co2emission  ETV
vector 142  FranciscoScenario.node[12].veinsmobility  posx  ETV
vector 143  FranciscoScenario.node[12].veinsmobility  posy  ETV
vector 144  FranciscoScenario.node[12].veinsmobility  speed  ETV
vector 145  FranciscoScenario.node[12].veinsmobility  acceleration  ETV
vector 146  FranciscoScenario.node[12].veinsmobility  co2emission  ETV
vector 153  FranciscoScenario.node[13].veinsmobility  posx  ETV
vector 154  FranciscoScenario.node[13].veinsmobility  posy  ETV
vector 155  FranciscoScenario.node[13].veinsmobility  speed  ETV
vector 156  FranciscoScenario.node[13].veinsmobility  acceleration  ETV
vector 157  FranciscoScenario.node[13].veinsmobility  co2emission  ETV
vector 164  FranciscoScenario.node[14].veinsmobility  posx  ETV
vector 165  FranciscoScenario.node[14].veinsmobility  posy  ETV
vector 166  FranciscoScenario.node[14].veinsmobility  speed  ETV
vector 167  FranciscoScenario.node[14].veinsmobility  acceleration  ETV
vector 168  FranciscoScenario.node[14].veinsmobility  co2emission  ETV
vector 175  FranciscoScenario.node[15].veinsmobility  posx  ETV
vector 176  FranciscoScenario.node[15].veinsmobility  posy  ETV
vector 177  FranciscoScenario.node[15].veinsmobility  speed  ETV
vector 178  FranciscoScenario.node[15].veinsmobility  acceleration  ETV
vector 179  FranciscoScenario.node[15].veinsmobility  co2emission  ETV
vector 186  FranciscoScenario.node[16].veinsmobility  posx  ETV
vector 187  FranciscoScenario.node[16].veinsmobility  posy  ETV
vector 188  FranciscoScenario.node[16].veinsmobility  speed  ETV
vector 189  FranciscoScenario.node[16].veinsmobility  acceleration  ETV
vector 190  FranciscoScenario.node[16].veinsmobility  co2emission  ETV
vector 197  FranciscoScenario.node[17].veinsmobility  posx  ETV
vector 198  FranciscoScenario.node[17].veinsmobility  posy  ETV
vector 199  FranciscoScenario.node[17].veinsmobility  speed  ETV
vector 200  FranciscoScenario.node[17].veinsmobility  acceleration  ETV
vector 201  FranciscoScenario.node[17].veinsmobility  co2emission  ETV
vector 208  FranciscoScenario.node[18].veinsmobility  posx  ETV
vector 209  FranciscoScenario.node[18].veinsmobility  posy  ETV
vector 210  FranciscoScenario.node[18].veinsmobility  speed  ETV
vector 211  FranciscoScenario.node[18].veinsmobility  acceleration  ETV
vector 212  FranciscoScenario.node[18].veinsmobility  co2emission  ETV
vector 219  FranciscoScenario.node[19].veinsmobility  posx  ETV
vector 220  FranciscoScenario.node[19].veinsmobility  posy  ETV
vector 221  FranciscoScenario.node[19].veinsmobility  speed  ETV
vector 222  FranciscoScenario.node[19].veinsmobility  acceleration  ETV
vector 223  FranciscoScenario.node[19].veinsmobility  co2emission  ETV
vector 230  FranciscoScenario.node[20].veinsmobility  posx  ETV
vector 231  FranciscoScenario.node[20].veinsmobility  posy  ETV
vector 232  FranciscoScenario.node[20].veinsmobility  speed  ETV
vector 233  FranciscoScenario.node[20].veinsmobility  acceleration  ETV
vector 234  FranciscoScenario.node[20].veinsmobility  co2emission  ETV
vector 241  FranciscoScenario.node[21].veinsmobility  posx  ETV
vector 242  FranciscoScenario.node[21].veinsmobility  posy  ETV
vector 243  FranciscoScenario.node[21].veinsmobility  speed  ETV
vector 244  FranciscoScenario.node[21].veinsmobility  acceleration  ETV
vector 245  FranciscoScenario.node[21].veinsmobility  co2emission  ETV
vector 252  FranciscoScenario.node[22].veinsmobility  posx  ETV
vector 253  FranciscoScenario.node[22].veinsmobility  posy  ETV
vector 254  FranciscoScenario.node[22].veinsmobility  speed  ETV
vector 255  FranciscoScenario.node[22].veinsmobility  acceleration  ETV
vector 256  FranciscoScenario.node[22].veinsmobility  co2emission  ETV
vector 263  FranciscoScenario.node[23].veinsmobility  posx  ETV
vector 264  FranciscoScenario.node[23].veinsmobility  posy  ETV
vector 265  FranciscoScenario.node[23].veinsmobility  speed  ETV
vector 266  FranciscoScenario.node[23].veinsmobility  acceleration  ETV
vector 267  FranciscoScenario.node[23].veinsmobility  co2emission  ETV
vector 274  FranciscoScenario.node[24].veinsmobility  posx  ETV
vector 275  FranciscoScenario.node[24].veinsmobility  posy  ETV
vector 276  FranciscoScenario.node[24].veinsmobility  speed  ETV
vector 277  FranciscoScenario.node[24].veinsmobility  acceleration  ETV
vector 278  FranciscoScenario.node[24].veinsmobility  co2emission  ETV
vector 285  FranciscoScenario.node[25].veinsmobility  posx  ETV
vector 286  FranciscoScenario.node[25].veinsmobility  posy  ETV
vector 287  FranciscoScenario.node[25].veinsmobility  speed  ETV
vector 288  FranciscoScenario.node[25].veinsmobility  acceleration  ETV
vector 289  FranciscoScenario.node[25].veinsmobility  co2emission  ETV
vector 296  FranciscoScenario.node[26].veinsmobility  posx  ETV
vector 297  FranciscoScenario.node[26].veinsmobility  posy  ETV
vector 298  FranciscoScenario.node[26].veinsmobility  speed  ETV
vector 299  FranciscoScenario.node[26].veinsmobility  acceleration  ETV
vector 300  FranciscoScenario.node[26].veinsmobility  co2emission  ETV
vector 307  FranciscoScenario.node[27].veinsmobility  posx  ETV
vector 308  FranciscoScenario.node[27].veinsmobility  posy  ETV
vector 309  FranciscoScenario.node[27].veinsmobility  speed  ETV
vector 310  FranciscoScenario.node[27].veinsmobility  acceleration  ETV
vector 311  FranciscoScenario.node[27].veinsmobility  co2emission  ETV
vector 318  FranciscoScenario.node[28].veinsmobility  posx  ETV
vector 319  FranciscoScenario.node[28].veinsmobility  posy  ETV
vector 320  FranciscoScenario.node[28].veinsmobility  speed  ETV
vector 321  FranciscoScenario.node[28].veinsmobility  acceleration  ETV
vector 322  FranciscoScenario.node[28].veinsmobility  co2emission  ETV
vector 329  FranciscoScenario.node[29].veinsmobility  posx  ETV
vector 330  FranciscoScenario.node[29].veinsmobility  posy  ETV
vector 331  FranciscoScenario.node[29].veinsmobility  speed  ETV
vector 332  FranciscoScenario.node[29].veinsmobility  acceleration  ETV
vector 333  FranciscoScenario.node[29].veinsmobility  co2emission  ETV
vector 15  FranciscoScenario.node[1].appl  warningReceivedSignal:vector  ETV
attr description  "Warning Message Received"
vector 17  FranciscoScenario.node[1].appl  messageReceivedSignal:vector  ETV
attr description  "Message Received"
vector 2  FranciscoScenario.stats  allWarningsReceivedSignal:vector  ETV
attr description  "All Warnings Received"
vector 3  FranciscoScenario.stats  allMessagesReceivedSignal:vector  ETV
attr description  "All Messages Received"
vector 1  FranciscoScenario.stats  allNewWarningsReceivedSignal:vector  ETV
attr description  "All New Warnings Received"
vector 18  FranciscoScenario.node[1].appl  newWarningReceivedSignal:vector  ETV
attr description  "New Warning Message Received"
vector 26  FranciscoScenario.node[2].appl  warningReceivedSignal:vector  ETV
attr description  "Warning Message Received"
vector 28  FranciscoScenario.node[2].appl  messageReceivedSignal:vector  ETV
attr description  "Message Received"
vector 29  FranciscoScenario.node[2].appl  newWarningReceivedSignal:vector  ETV
attr description  "New Warning Message Received"
vector 37  FranciscoScenario.node[3].appl  warningReceivedSignal:vector  ETV
attr description  "Warning Message Received"
vector 39  FranciscoScenario.node[3].appl  messageReceivedSignal:vector  ETV
attr description  "Message Received"
vector 40  FranciscoScenario.node[3].appl  newWarningReceivedSignal:vector  ETV
attr description  "New Warning Message Received"
vector 48  FranciscoScenario.node[4].appl  warningReceivedSignal:vector  ETV
attr description  "Warning Message Received"
vector 50  FranciscoScenario.node[4].appl  messageReceivedSignal:vector  ETV
attr description  "Message Received"
vector 51  FranciscoScenario.node[4].appl  newWarningReceivedSignal:vector  ETV
attr description  "New Warning Message Received"
vector 59  FranciscoScenario.node[5].appl  warningReceivedSignal:vector  ETV
attr description  "Warning Message Received"
vector 61  FranciscoScenario.node[5].appl  messageReceivedSignal:vector  ETV
attr description  "Message Received"
vector 62  FranciscoScenario.node[5].appl  newWarningReceivedSignal:vector  ETV
attr description  "New Warning Message Received"
vector 70  FranciscoScenario.node[6].appl  warningReceivedSignal:vector  ETV
attr description  "Warning Message Received"
vector 72  FranciscoScenario.node[6].appl  messageReceivedSignal:vector  ETV
attr description  "Message Received"
vector 73  FranciscoScenario.node[6].appl  newWarningReceivedSignal:vector  ETV
attr description  "New Warning Message Received"
vector 81  FranciscoScenario.node[7].appl  warningReceivedSignal:vector  ETV
attr description  "Warning Message Received"
vector 83  FranciscoScenario.node[7].appl  messageReceivedSignal:vector  ETV
attr description  "Message Received"
vector 84  FranciscoScenario.node[7].appl  newWarningReceivedSignal:vector  ETV
attr description  "New Warning Message Received"
vector 92  FranciscoScenario.node[8].appl  warningReceivedSignal:vector  ETV
attr description  "Warning Message Received"
vector 94  FranciscoScenario.node[8].appl  messageReceivedSignal:vector  ETV
attr description  "Message Received"
vector 95  FranciscoScenario.node[8].appl  newWarningReceivedSignal:vector  ETV
attr description  "New Warning Message Received"
vector 103  FranciscoScenario.node[9].appl  warningReceivedSignal:vector  ETV
attr description  "Warning Message Received"
vector 105  FranciscoScenario.node[9].appl  messageReceivedSignal:vector  ETV
attr description  "Message Received"
vector 106  FranciscoScenario.node[9].appl  newWarningReceivedSignal:vector  ETV
attr description  "New Warning Message Received"
vector 114  FranciscoScenario.node[10].appl  warningReceivedSignal:vector  ETV
attr description  "Warning Message Received"
vector 116  FranciscoScenario.node[10].appl  messageReceivedSignal:vector  ETV
attr description  "Message Received"
vector 117  FranciscoScenario.node[10].appl  newWarningReceivedSignal:vector  ETV
attr description  "New Warning Message Received"
vector 125  FranciscoScenario.node[11].appl  warningReceivedSignal:vector  ETV
attr description  "Warning Message Received"
vector 127  FranciscoScenario.node[11].appl  messageReceivedSignal:vector  ETV
attr description  "Message Received"
vector 128  FranciscoScenario.node[11].appl  newWarningReceivedSignal:vector  ETV
attr description  "New Warning Message Received"
vector 136  FranciscoScenario.node[12].appl  warningReceivedSignal:vector  ETV
attr description  "Warning Message Received"
vector 138  FranciscoScenario.node[12].appl  messageReceivedSignal:vector  ETV
attr description  "Message Received"
vector 139  FranciscoScenario.node[12].appl  newWarningReceivedSignal:vector  ETV
attr description  "New Warning Message Received"
vector 4  FranciscoScenario.node[0].appl  warningReceivedSignal:vector  ETV
attr description  "Warning Message Received"
vector 6  FranciscoScenario.node[0].appl  messageReceivedSignal:vector  ETV
attr description  "Message Received"
vector 7  FranciscoScenario.node[0].appl  newWarningReceivedSignal:vector  ETV
attr description  "New Warning Message Received"
vector 147  FranciscoScenario.node[13].appl  warningReceivedSignal:vector  ETV
attr description  "Warning Message Received"
vector 149  FranciscoScenario.node[13].appl  messageReceivedSignal:vector  ETV
attr description  "Message Received"
vector 150  FranciscoScenario.node[13].appl  newWarningReceivedSignal:vector  ETV
attr description  "New Warning Message Received"
vector 158  FranciscoScenario.node[14].appl  warningReceivedSignal:vector  ETV
attr description  "Warning Message Received"
vector 160  FranciscoScenario.node[14].appl  messageReceivedSignal:vector  ETV
attr description  "Message Received"
vector 161  FranciscoScenario.node[14].appl  newWarningReceivedSignal:vector  ETV
attr description  "New Warning Message Received"
vector 169  FranciscoScenario.node[15].appl  warningReceivedSignal:vector  ETV
attr description  "Warning Message Received"
vector 171  FranciscoScenario.node[15].appl  messageReceivedSignal:vector  ETV
attr description  "Message Received"
vector 172  FranciscoScenario.node[15].appl  newWarningReceivedSignal:vector  ETV
attr description  "New Warning Message Received"
vector 180  FranciscoScenario.node[16].appl  warningReceivedSignal:vector  ETV
attr description  "Warning Message Received"
vector 182  FranciscoScenario.node[16].appl  messageReceivedSignal:vector  ETV
attr description  "Message Received"
vector 183  FranciscoScenario.node[16].appl  newWarningReceivedSignal:vector  ETV
attr description  "New Warning Message Received"
vector 191  FranciscoScenario.node[17].appl  warningReceivedSignal:vector  ETV
attr description  "Warning Message Received"
vector 193  FranciscoScenario.node[17].appl  messageReceivedSignal:vector  ETV
attr description  "Message Received"
vector 194  FranciscoScenario.node[17].appl  newWarningReceivedSignal:vector  ETV
attr description  "New Warning Message Received"
vector 202  FranciscoScenario.node[18].appl  warningReceivedSignal:vector  ETV
attr description  "Warning Message Received"
vector 204  FranciscoScenario.node[18].appl  messageReceivedSignal:vector  ETV
attr description  "Message Received"
vector 205  FranciscoScenario.node[18].appl  newWarningReceivedSignal:vector  ETV
attr description  "New Warning Message Received"
vector 213  FranciscoScenario.node[19].appl  warningReceivedSignal:vector  ETV
attr description  "Warning Message Received"
vector 215  FranciscoScenario.node[19].appl  messageReceivedSignal:vector  ETV
attr description  "Message Received"
vector 216  FranciscoScenario.node[19].appl  newWarningReceivedSignal:vector  ETV
attr description  "New Warning Message Received"
vector 224  FranciscoScenario.node[20].appl  warningReceivedSignal:vector  ETV
attr description  "Warning Message Received"
vector 226  FranciscoScenario.node[20].appl  messageReceivedSignal:vector  ETV
attr description  "Message Received"
vector 227  FranciscoScenario.node[20].appl  newWarningReceivedSignal:vector  ETV
attr description  "New Warning Message Received"
vector 235  FranciscoScenario.node[21].appl  warningReceivedSignal:vector  ETV
attr description  "Warning Message Received"
vector 237  FranciscoScenario.node[21].appl  messageReceivedSignal:vector  ETV
attr description  "Message Received"
vector 238  FranciscoScenario.node[21].appl  newWarningReceivedSignal:vector  ETV
attr description  "New Warning Message Received"
vector 246  FranciscoScenario.node[22].appl  warningReceivedSignal:vector  ETV
attr description  "Warning Message Received"
vector 248  FranciscoScenario.node[22].appl  messageReceivedSignal:vector  ETV
attr description  "Message Received"
vector 249  FranciscoScenario.node[22].appl  newWarningReceivedSignal:vector  ETV
attr description  "New Warning Message Received"
vector 312  FranciscoScenario.node[28].appl  warningReceivedSignal:vector  ETV
attr description  "Warning Message Received"
vector 314  FranciscoScenario.node[28].appl  messageReceivedSignal:vector  ETV
attr description  "Message Received"
vector 315  FranciscoScenario.node[28].appl  newWarningReceivedSignal:vector  ETV
attr description  "New Warning Message Received"
vector 323  FranciscoScenario.node[29].appl  warningReceivedSignal:vector  ETV
attr description  "Warning Message Received"
vector 325  FranciscoScenario.node[29].appl  messageReceivedSignal:vector  ETV
attr description  "Message Received"
vector 326  FranciscoScenario.node[29].appl  newWarningReceivedSignal:vector  ETV
attr description  "New Warning Message Received"
vector 257  FranciscoScenario.node[23].appl  warningReceivedSignal:vector  ETV
attr description  "Warning Message Received"
vector 259  FranciscoScenario.node[23].appl  messageReceivedSignal:vector  ETV
attr description  "Message Received"
vector 260  FranciscoScenario.node[23].appl  newWarningReceivedSignal:vector  ETV
attr description  "New Warning Message Received"
vector 268  FranciscoScenario.node[24].appl  warningReceivedSignal:vector  ETV
attr description  "Warning Message Received"
vector 270  FranciscoScenario.node[24].appl  messageReceivedSignal:vector  ETV
attr description  "Message Received"
vector 271  FranciscoScenario.node[24].appl  newWarningReceivedSignal:vector  ETV
attr description  "New Warning Message Received"
vector 279  FranciscoScenario.node[25].appl  warningReceivedSignal:vector  ETV
attr description  "Warning Message Received"
vector 281  FranciscoScenario.node[25].appl  messageReceivedSignal:vector  ETV
attr description  "Message Received"
vector 282  FranciscoScenario.node[25].appl  newWarningReceivedSignal:vector  ETV
attr description  "New Warning Message Received"
vector 290  FranciscoScenario.node[26].appl  warningReceivedSignal:vector  ETV
attr description  "Warning Message Received"
vector 292  FranciscoScenario.node[26].appl  messageReceivedSignal:vector  ETV
attr description  "Message Received"
vector 293  FranciscoScenario.node[26].appl  newWarningReceivedSignal:vector  ETV
attr description  "New Warning Message Received"
vector 301  FranciscoScenario.node[27].appl  warningReceivedSignal:vector  ETV
attr description  "Warning Message Received"
vector 303  FranciscoScenario.node[27].appl  messageReceivedSignal:vector  ETV
attr description  "Message Received"
vector 304  FranciscoScenario.node[27].appl  newWarningReceivedSignal:vector  ETV
attr description  "New Warning Message Received"
7	1058	87.803506067754	1
6	1058	87.803506067754	1
6	1249	87.803712930808	1
6	1391	87.803905030907	1
6	1547	87.804162581736	1
6	2197	87.805114806743	1
6	2292	87.805332806791	1
6	2715	87.805658264879	1
6	2906	87.805863269506	1
6	3140	87.806420143364	1
6	3682	87.807027232886	1
6	3795	87.807219259665	1
4	1058	87.803506067754	1
4	1249	87.803712930808	1
4	1391	87.803905030907	1
4	1547	87.804162581736	1
4	2197	87.805114806743	1
4	2292	87.805332806791	1
4	2715	87.805658264879	1
4	2906	87.805863269506	1
4	3140	87.806420143364	1
4	3682	87.807027232886	1
4	3795	87.807219259665	1
14	4	0.3	1.4276208928798
14	5	0.4	1.5553504369406
14	6	0.5	1.6547258140606
14	7	0.6	1.7983555805977
14	8	0.7	1.8323674505787
14	9	0.8	2.0110897446338
14	10	0.9	1.970451684244
14	11	1	2.244901373431
14	12	1.1	2.2119208452933
14	13	1.2	2.2548819012347
14	14	1.3	2.5345448660167
14	15	1.4	2.6013847819414
14	16	1.5	2.852151772081
14	17	1.6	2.3526342216865
14	18	1.7	3.339605186172
14	19	1.8	2.4276646371033
14	20	1.9	3.3234379637286
14	21	2	3.3108190720898
14	22	2.1	3.2988402737822
14	23	2.2	2.9578171889378
14	24	2.3	2.9959376211745
14	25	2.4	3.4908200907348
14	26	2.5	3.6670806850063
14	27	2.6	3.6268696198063
14	28	2.7	4.0205201967415
14	29	2.8	3.1988957479633
14	30	2.9	3.4137976506977
14	31	3	4.907912272511
14	32	3.1	4.5496391886597
14	33	3.2	5.1843707050129
14	34	3.3	5.490502883119
14	35	3.4	3.8970556575359
14	36	3.5	4.0812734992789
14	37	3.6	3.9458891055838
14	38	3.7	3.7593760917064
14	39	3.8	4.2273339749307
14	40	3.9	5.1045553963918
14	41	4	4.4294934204996
14	42	4.1	6.1704815888201
14	43	4.2	4.9722185416067
14	44	4.3	6.3796667209292
14	45	4.4	4.3550328563445
14	46	4.5	5.5724689565354
14	47	4.6	5.9783016536976
14	48	4.7	6.531517038645
14	49	4.8	5.1600288586713
14	50	4.9	6.1886912441601
14	51	5	5.9549957283831
14	52	5.1	7.7853608744789
14	53	5.2	6.0293065596097
14	54	5.3	6.1389862136434
14	55	5.4	6.215380184048
14	56	5.5	5.2080809029875
14	57	5.6	6.1561018361202
14	58	5.7	7.3629412347938
14	59	5.8	7.2141082079045
14	60	5.9	6.3899916329279
14	61	6	8.8173762262081
14	62	6.1	6.712915009577
14	63	6.2	6.7856909201694
14	64	6.3	8.0773156423548
14	65	6.4	8.3743676988308
14	66	6.5	8.4713421478856
14	67	6.6	8.1436375074094
14	68	6.7	6.1246890190291
14	69	6.8	9.3014481119437
14	70	6.9	6.1272339967354
14	71	7	9.3496226877566
14	72	7.1	8.5304672898817
14	73	7.2	9.1242607840614
14	74	7.3	0.973
14	75	7.4	4.3577761273913
14	76	7.5	0.973
14	77	7.6	2.5720389208699
14	78	7.7	2.8766605061585
14	79	7.8	4.3165487169568
14	80	7.9	0.973
14	81	8	1.5897409358382
14	82	8.1	4.2992840120413
14	83	8.2	3.8192287130312
14	84	8.3	0.973
14	85	8.4	4.9896392768023
14	86	8.5	0.973
14	87	8.6	3.2116257252267
14	88	8.7	2.8822162993739
14	89	8.8	0.973
14	90	8.9	2.2705069044256
14	91	9	3.8308782287708
14	92	9.1	2.0735985700595
14	93	9.2	0.973
14	94	9.3	2.8376475775941
14	95	9.4	1.3397800903168
14	96	9.5	0.973
14	97	9.6	0.973
14	98	9.7	2.6721583083952
14	99	9.8	1.7699536569376
14	100	9.9	4.1362624045135
14	101	10	0.973
14	102	10.1	0.973
14	103	10.2	0.973
14	104	10.3	0.973
14	105	10.4	0.973
14	106	10.5	0.973
14	107	10.6	0.973
14	108	10.7	0.973
14	109	10.8	0.973
14	110	10.9	0.973
14	111	11	0.973
14	112	11.1	0.973
14	113	11.2	0.973
14	114	11.3	0.973
14	115	11.4	0.973
14	116	11.5	0.973
14	117	11.6	0.973
14	118	11.7	0.973
14	119	11.8	0.973
14	120	11.9	0.973
14	121	12	0.973
14	122	12.1	0.973
14	123	12.2	0.973
14	124	12.3	0.973
14	125	12.4	0.973
14	126	12.5	0.973
14	127	12.6	0.973
14	128	12.7	0.973
14	129	12.8	0.973
14	130	12.9	0.973
14	131	13	0.973
14	132	13.1	0.973
14	133	13.2	0.973
14	134	13.3	0.973
14	135	13.4	0.973
14	136	13.5	0.973
14	137	13.6	3.5735574093087
14	138	13.7	3.7500424838715
14	139	13.8	3.9266738352852
14	140	13.9	4.1034612054572
14	141	14	4.2804143362946
14	142	14.1	4.4575429697045
14	143	14.2	4.6348568475942
14	144	14.3	4.8123657118707
14	145	14.4	4.9900793044413
14	146	14.5	3.8570439909308
14	147	14.6	3.9658166612094
14	148	14.7	4.9321216693566
14	149	14.8	4.746637985347
14	150	14.9	4.5696051347275
14	151	15	5.2216510129458
14	152	15.1	4.4214073361883
14	153	15.2	4.2489042048499
14	154	15.3	5.4585271853975
14	155	15.4	4.6050085823935
14	156	15.5	4.8474587574368
14	157	15.6	4.5203652490089
14	158	15.7	5.9819080005712
14	159	15.8	5.6131830759796
14	160	15.9	6.5511640891088
14	161	16	7.0908903175858
14	162	16.1	6.7157379063457
14	163	16.2	7.3807846395105
14	164	16.3	5.6087545858803
14	165	16.4	7.7880890112275
14	166	16.5	5.7357624026778
14	167	16.6	6.2165560631356
14	168	16.7	7.5164231263597
14	169	16.8	6.7326702205247
14	170	16.9	6.0964562366966
14	171	17	7.981273887304
14	172	17.1	5.7457965389222
14	173	17.2	6.202061885998
14	174	17.3	7.5371876127656
14	175	17.4	7.6928493572579
14	176	17.5	7.7960277624751
14	177	17.6	6.4398105311437
14	178	17.7	8.0365249061328
14	179	17.8	6.0681766278845
14	180	17.9	6.9306994043177
14	181	18	9.3762185666796
14	182	18.1	7.3527644615935
14	183	18.2	6.7810181465907
14	184	18.3	9.82520242459
14	185	18.4	8.568514074897
14	186	18.5	9.4567343017326
14	187	18.6	3.772814371066
14	188	18.7	0.973
14	189	18.8	5.3680948288379
14	190	18.9	0.973
14	191	19	1.9796426442958
14	192	19.1	0.973
14	193	19.2	3.7649097958479
14	194	19.3	3.2342043860393
14	195	19.4	2.5370470023251
14	196	19.5	0.973
14	197	19.6	0.973
14	198	19.7	2.7858082982705
14	199	19.8	1.8806459786383
14	200	19.9	4.1892888634077
14	201	20	0.973
14	202	20.1	3.3273489879395
14	203	20.2	0.973
14	204	20.3	2.8083311032441
14	205	20.4	0.973
14	206	20.5	3.8701196018204
14	207	20.6	3.9055126662748
14	208	20.7	2.2167231120935
14	209	20.8	2.1267615853112
14	210	20.9	1.8745016987642
14	211	21	0.973
14	212	21.1	0.973
14	213	21.2	0.973
14	214	21.3	0.973
14	215	21.4	0.973
14	216	21.5	0.973
14	217	21.6	0.973
14	218	21.7	0.973
14	219	21.8	0.973
14	220	21.9	0.973
14	221	22	0.973
14	222	22.1	0.973
14	223	22.2	0.973
14	224	22.3	0.973
14	225	22.4	0.973
14	226	22.5	0.973
14	227	22.6	0.973
14	228	22.7	0.973
14	229	22.8	0.973
14	230	22.9	0.973
14	231	23	0.973
14	232	23.1	0.973
14	233	23.2	0.973
14	234	23.3	0.973
14	235	23.4	0.973
14	236	23.5	0.973
14	237	23.6	0.973
14	238	23.7	0.973
14	239	23.8	0.973
14	240	23.9	0.973
14	241	24	0.973
14	242	24.1	0.973
14	243	24.2	0.973
14	244	24.3	0.973
14	245	24.4	0.973
14	246	24.5	0.973
14	247	24.6	3.6240893109914
14	248	24.7	3.8006152845237
14	249	24.8	3.9772903250419
14	250	24.9	4.1541241744533
14	251	25	4.3311265746651
14	252	25.1	4.5083072675844
14	253	25.2	4.6856759951183
14	254	25.3	4.8632424991741
14	255	25.4	5.0410165216589
14	256	25.5	3.8859149192882
14	257	25.6	4.8522949201943
14	258	25.7	4.5889825125131
14	259	25.8	4.3613735727495
14	260	25.9	4.7665186718711
14	261	26	3.8863474238154
14	262	26.1	4.2288138443319
14	263	26.2	4.0547633818732
14	264	26.3	4.7855603242303
14	265	26.4	5.3447560740367
14	266	26.5	4.2105475839239
14	267	26.6	5.9521117542016
14	268	26.7	5.4794975640117
14	269	26.8	4.5562149503915
14	270	26.9	6.8150424461882
14	271	27	6.0671182779949
14	272	27.1	4.9167537301483
14	273	27.2	6.2074298318165
14	274	27.3	7.2191883226358
14	275	27.4	7.4029662412396
14	276	27.5	6.2315306477114
14	277	27.6	5.3135756322439
14	278	27.7	7.4083525223848
14	279	27.8	5.4366569957971
14	280	27.9	7.8819571607796
14	281	28	5.8637898573298
14	282	28.1	7.300168473967
14	283	28.2	7.1956609415836
14	284	28.3	8.2428881276577
14	285	28.4	8.2730115017943
14	286	28.5	8.6600607501145
14	287	28.6	6.3742753388212
14	288	28.7	6.7595762358298
14	289	28.8	7.4215966634988
14	290	28.9	6.7221375290765
14	291	29	7.1594565533866
14	292	29.1	7.0981869224596
14	293	29.2	6.6705148011106
14	294	29.3	7.2322677423476
14	295	29.4	8.6806146629715
14	296	29.5	7.2213268246598
14	297	29.6	9.704010775064
14	298	29.7	5.2051598044382
14	299	29.8	2.2527785912388
14	300	29.9	3.8779324726601
14	301	30	0.973
14	302	30.1	4.0563165424524
14	303	30.2	2.4974147815801
14	304	30.3	2.6234386093264
14	305	30.4	0.973
14	306	30.5	0.973
14	307	30.6	5.9481304986441
14	308	30.7	0.973
14	309	30.8	1.22943389264
14	310	30.9	1.2449607330017
14	311	31	2.306543854533
14	312	31.1	2.3682685624403
14	313	31.2	3.7272252321311
14	314	31.3	3.3504652801419
14	315	31.4	0.973
14	316	31.5	3.7946588212991
14	317	31.6	2.5978908169034
14	318	31.7	3.1205944417295
14	319	31.8	0.973